# vtk DataFile Version 2.0
DGS printing
ASCII
DATASET UNSTRUCTURED_GRID
POINTS  144  floats
21.26157 20.90860 20.10104 21.24746 20.90860 20.10207 21.24643 20.90860 20.08796 
21.26054 20.90860 20.08693 21.26157 19.90860 20.10104 21.24746 19.90860 20.10207 
21.24643 19.90860 20.08796 21.26054 19.90860 20.08693 21.25473 20.90860 20.10447 
21.24403 20.90860 20.09523 21.25327 20.90860 20.08453 21.26397 20.90860 20.09377 
21.25473 19.90860 20.10447 21.24403 19.90860 20.09523 21.25327 19.90860 20.08453 
21.26397 19.90860 20.09377 21.26157 20.40860 20.10104 21.24746 20.40860 20.10207 
21.24643 20.40860 20.08796 21.26054 20.40860 20.08693 21.26397 20.40860 20.09377 
21.24403 20.40860 20.09523 21.25473 20.40860 20.10447 21.25327 20.40860 20.08453 
21.26676 21.90860 20.12165 21.22685 21.90860 20.10726 21.24124 21.90860 20.06735 
21.28115 21.90860 20.08174 21.26676 20.90860 20.12165 21.22685 20.90860 20.10726 
21.24124 20.90860 20.06735 21.28115 20.90860 20.08174 21.24382 21.90860 20.12272 
21.22578 21.90860 20.08432 21.26418 21.90860 20.06628 21.28222 21.90860 20.10468 
21.24382 20.90860 20.12272 21.22578 20.90860 20.08432 21.26418 20.90860 20.06628 
21.28222 20.90860 20.10468 21.26676 21.40860 20.12165 21.22685 21.40860 20.10726 
21.24124 21.40860 20.06735 21.28115 21.40860 20.08174 21.28222 21.40860 20.10468 
21.22578 21.40860 20.08432 21.24382 21.40860 20.12272 21.26418 21.40860 20.06628 
21.29047 22.90860 20.12871 21.28821 22.90860 20.05803 21.21753 22.90860 20.06029 
21.21979 22.90860 20.13097 21.29047 23.90860 20.12871 21.28821 23.90860 20.05803 
21.21753 23.90860 20.06029 21.21979 23.90860 20.13097 21.30397 22.90860 20.09290 
21.25240 22.90860 20.04453 21.20403 22.90860 20.09610 21.25560 22.90860 20.14447 
21.30397 23.90860 20.09290 21.25240 23.90860 20.04453 21.20403 23.90860 20.09610 
21.25560 23.90860 20.14447 21.29047 23.40860 20.12871 21.28821 23.40860 20.05803 
21.21753 23.40860 20.06029 21.21979 23.40860 20.13097 21.25560 23.40860 20.14447 
21.25240 23.40860 20.04453 21.30397 23.40860 20.09290 21.20403 23.40860 20.09610 
21.27850 23.90860 20.13808 21.29758 23.90860 20.07000 21.22950 23.90860 20.05092 
21.21042 23.90860 20.11900 21.27850 26.90860 20.13808 21.29758 26.90860 20.07000 
21.22950 26.90860 20.05092 21.21042 26.90860 20.11900 21.30215 23.90860 20.10799 
21.26749 23.90860 20.04635 21.20585 23.90860 20.08101 21.24051 23.90860 20.14265 
21.30215 26.90860 20.10799 21.26749 26.90860 20.04635 21.20585 26.90860 20.08101 
21.24051 26.90860 20.14265 21.27850 25.40860 20.13808 21.29758 25.40860 20.07000 
21.22950 25.40860 20.05092 21.21042 25.40860 20.11900 21.24051 25.40860 20.14265 
21.26749 25.40860 20.04635 21.30215 25.40860 20.10799 21.20585 25.40860 20.08101 
21.29081 27.22820 20.12834 21.28784 27.22820 20.05769 21.21719 27.22820 20.06066 
21.22016 27.22820 20.13131 21.29081 28.22820 20.12834 21.28784 28.22820 20.05769 
21.21719 28.22820 20.06066 21.22016 28.22820 20.13131 21.30396 27.22820 20.09240 
21.25190 27.22820 20.04454 21.20404 27.22820 20.09660 21.25610 27.22820 20.14446 
21.30396 28.22820 20.09240 21.25190 28.22820 20.04454 21.20404 28.22820 20.09660 
21.25610 28.22820 20.14446 21.29081 27.72820 20.12834 21.28784 27.72820 20.05769 
21.21719 27.72820 20.06066 21.22016 27.72820 20.13131 21.25610 27.72820 20.14446 
21.25190 27.72820 20.04454 21.30396 27.72820 20.09240 21.20404 27.72820 20.09660 
21.29674 28.53440 20.12046 21.27996 28.53440 20.05176 21.21126 28.53440 20.06854 
21.22804 28.53440 20.13724 21.29674 29.53440 20.12046 21.27996 29.53440 20.05176 
21.21126 29.53440 20.06854 21.22804 29.53440 20.13724 21.30257 28.53440 20.08263 
21.24213 28.53440 20.04593 21.20543 28.53440 20.10637 21.26587 28.53440 20.14307 
21.30257 29.53440 20.08263 21.24213 29.53440 20.04593 21.20543 29.53440 20.10637 
21.26587 29.53440 20.14307 21.29674 29.03440 20.12046 21.27996 29.03440 20.05176 
21.21126 29.03440 20.06854 21.22804 29.03440 20.13724 21.26587 29.03440 20.14307 
21.24213 29.03440 20.04593 21.30257 29.03440 20.08263 21.20543 29.03440 20.10637 
CELLS  6   150
24 0 1 2 3 4 5 6 7 8 9 10 11 12 13 14 15 16 17 18 19 20 21 22 23
24 24 25 26 27 28 29 30 31 32 33 34 35 36 37 38 39 40 41 42 43 44 45 46 47
24 48 49 50 51 52 53 54 55 56 57 58 59 60 61 62 63 64 65 66 67 68 69 70 71
24 72 73 74 75 76 77 78 79 80 81 82 83 84 85 86 87 88 89 90 91 92 93 94 95
24 96 97 98 99 100 101 102 103 104 105 106 107 108 109 110 111 112 113 114 115 116 117 118 119
24 120 121 122 123 124 125 126 127 128 129 130 131 132 133 134 135 136 137 138 139 140 141 142 143
CELL_TYPES  6 
33
33
33
33
33
33
CELL_DATA  6 
SCALARS average_vol_activity_bq_m3 double 1 
LOOKUP_TABLE default
1.50305
2.61708
119.99699
31.58692
5.75958
2.69585
SCALARS total_activity_bq double 1 
LOOKUP_TABLE default
0.00047
0.00740
0.94245
0.74425
0.04524
0.02117
SCALARS mc_error double 1 
LOOKUP_TABLE default
0.00000
0.00000
0.00187
0.00187
0.00187
0.00187
SCALARS reynolds double 1 
LOOKUP_TABLE default
91796.62629
30598.88625
18359.31357
18359.34474
18359.31357
18359.31357
SCALARS cumulated_time_s double 1 
LOOKUP_TABLE default
0.31236
3.12358
12.82573
36.25253
44.06148
51.87042
SCALARS res_time_s double 1 
LOOKUP_TABLE default
0.31236
2.81122
7.80895
23.42680
7.80895
7.80895
SCALARS mass_flow_kg_s double 1 
LOOKUP_TABLE default
1.00000
1.00000
1.00000
1.00000
1.00000
1.00000
SCALARS linear_velocity_m_s double 1 
LOOKUP_TABLE default
3.20146
0.35572
0.12806
0.12806
0.12806
0.12806
