# vtk DataFile Version 2.0
DGS printing
ASCII
DATASET UNSTRUCTURED_GRID
POINTS  144  floats
21.26167 20.90860 20.10091 21.24759 20.90860 20.10217 21.24633 20.90860 20.08809 
21.26041 20.90860 20.08683 21.26167 19.90860 20.10091 21.24759 19.90860 20.10217 
21.24633 19.90860 20.08809 21.26041 19.90860 20.08683 21.25489 20.90860 20.10446 
21.24404 20.90860 20.09539 21.25311 20.90860 20.08454 21.26396 20.90860 20.09361 
21.25489 19.90860 20.10446 21.24404 19.90860 20.09539 21.25311 19.90860 20.08454 
21.26396 19.90860 20.09361 21.26167 20.40860 20.10091 21.24759 20.40860 20.10217 
21.24633 20.40860 20.08809 21.26041 20.40860 20.08683 21.26396 20.40860 20.09361 
21.24404 20.40860 20.09539 21.25489 20.40860 20.10446 21.25311 20.40860 20.08454 
21.28054 21.90860 20.10848 21.24002 21.90860 20.12104 21.22746 21.90860 20.08052 
21.26798 21.90860 20.06796 21.28054 20.90860 20.10848 21.24002 20.90860 20.12104 
21.22746 20.90860 20.08052 21.26798 20.90860 20.06796 21.26288 21.90860 20.12316 
21.22534 21.90860 20.10338 21.24512 21.90860 20.06584 21.28266 21.90860 20.08562 
21.26288 20.90860 20.12316 21.22534 20.90860 20.10338 21.24512 20.90860 20.06584 
21.28266 20.90860 20.08562 21.28054 21.40860 20.10848 21.24002 21.40860 20.12104 
21.22746 21.40860 20.08052 21.26798 21.40860 20.06796 21.28266 21.40860 20.08562 
21.22534 21.40860 20.10338 21.26288 21.40860 20.12316 21.24512 21.40860 20.06584 
21.25863 22.90860 20.14429 21.30379 22.90860 20.08987 21.24937 22.90860 20.04471 
21.20421 22.90860 20.09913 21.25863 23.90860 20.14429 21.30379 23.90860 20.08987 
21.24937 23.90860 20.04471 21.20421 23.90860 20.09913 21.29248 22.90860 20.12643 
21.28593 22.90860 20.05602 21.21552 22.90860 20.06257 21.22207 22.90860 20.13298 
21.29248 23.90860 20.12643 21.28593 23.90860 20.05602 21.21552 23.90860 20.06257 
21.22207 23.90860 20.13298 21.25863 23.40860 20.14429 21.30379 23.40860 20.08987 
21.24937 23.40860 20.04471 21.20421 23.40860 20.09913 21.22207 23.40860 20.13298 
21.28593 23.40860 20.05602 21.29248 23.40860 20.12643 21.21552 23.40860 20.06257 
21.30247 23.90860 20.10676 21.26626 23.90860 20.04603 21.20553 23.90860 20.08224 
21.24174 23.90860 20.14297 21.30247 26.90860 20.10676 21.26626 26.90860 20.04603 
21.20553 26.90860 20.08224 21.24174 26.90860 20.14297 21.29695 23.90860 20.06890 
21.22840 23.90860 20.05155 21.21105 23.90860 20.12010 21.27960 23.90860 20.13745 
21.29695 26.90860 20.06890 21.22840 26.90860 20.05155 21.21105 26.90860 20.12010 
21.27960 26.90860 20.13745 21.30247 25.40860 20.10676 21.26626 25.40860 20.04603 
21.20553 25.40860 20.08224 21.24174 25.40860 20.14297 21.27960 25.40860 20.13745 
21.22840 25.40860 20.05155 21.29695 25.40860 20.06890 21.21105 25.40860 20.12010 
21.30123 27.22820 20.11090 21.27040 27.22820 20.04727 21.20677 27.22820 20.07810 
21.23760 27.22820 20.14173 21.30123 28.22820 20.11090 21.27040 28.22820 20.04727 
21.20677 28.22820 20.07810 21.23760 28.22820 20.14173 21.29900 27.22820 20.07270 
21.23220 27.22820 20.04950 21.20900 27.22820 20.11630 21.27580 27.22820 20.13950 
21.29900 28.22820 20.07270 21.23220 28.22820 20.04950 21.20900 28.22820 20.11630 
21.27580 28.22820 20.13950 21.30123 27.72820 20.11090 21.27040 27.72820 20.04727 
21.20677 27.72820 20.07810 21.23760 27.72820 20.14173 21.27580 27.72820 20.13950 
21.23220 27.72820 20.04950 21.29900 27.72820 20.07270 21.20900 27.72820 20.11630 
21.28161 28.53440 20.13618 21.29568 28.53440 20.06689 21.22639 28.53440 20.05282 
21.21232 28.53440 20.12211 21.28161 29.53440 20.13618 21.29568 29.53440 20.06689 
21.22639 29.53440 20.05282 21.21232 29.53440 20.12211 21.30300 28.53440 20.10445 
21.26395 28.53440 20.04550 21.20500 28.53440 20.08455 21.24405 28.53440 20.14350 
21.30300 29.53440 20.10445 21.26395 29.53440 20.04550 21.20500 29.53440 20.08455 
21.24405 29.53440 20.14350 21.28161 29.03440 20.13618 21.29568 29.03440 20.06689 
21.22639 29.03440 20.05282 21.21232 29.03440 20.12211 21.24405 29.03440 20.14350 
21.26395 29.03440 20.04550 21.30300 29.03440 20.10445 21.20500 29.03440 20.08455 
CELLS  6   150
24 0 1 2 3 4 5 6 7 8 9 10 11 12 13 14 15 16 17 18 19 20 21 22 23
24 24 25 26 27 28 29 30 31 32 33 34 35 36 37 38 39 40 41 42 43 44 45 46 47
24 48 49 50 51 52 53 54 55 56 57 58 59 60 61 62 63 64 65 66 67 68 69 70 71
24 72 73 74 75 76 77 78 79 80 81 82 83 84 85 86 87 88 89 90 91 92 93 94 95
24 96 97 98 99 100 101 102 103 104 105 106 107 108 109 110 111 112 113 114 115 116 117 118 119
24 120 121 122 123 124 125 126 127 128 129 130 131 132 133 134 135 136 137 138 139 140 141 142 143
CELL_TYPES  6 
33
33
33
33
33
33
CELL_DATA  6 
SCALARS average_vol_activity_bq_m3 double 1 
LOOKUP_TABLE default
1.50309
2.61718
119.49666
31.45522
5.73557
2.68461
SCALARS total_activity_bq double 1 
LOOKUP_TABLE default
0.00047
0.00740
0.93852
0.74114
0.04505
0.02108
SCALARS mc_error double 1 
LOOKUP_TABLE default
0.00010
0.00015
0.00348
0.00348
0.00348
0.00348
