# vtk DataFile Version 2.0
DGS printing
ASCII
DATASET UNSTRUCTURED_GRID
POINTS  48  floats
21.29132 23.79419 19.37600 21.24281 23.82032 19.37600 21.21668 23.77181 19.37600 
21.26519 23.74568 19.37600 21.29132 23.79419 22.31797 21.24281 23.82032 22.31797 
21.21668 23.77181 22.31797 21.26519 23.74568 22.31797 21.27247 23.81730 19.37600 
21.21970 23.80147 19.37600 21.23553 23.74870 19.37600 21.28830 23.76453 19.37600 
21.27247 23.81730 22.31797 21.21970 23.80147 22.31797 21.23553 23.74870 22.31797 
21.28830 23.76453 22.31797 21.29132 23.79419 20.84698 21.24281 23.82032 20.84698 
21.21668 23.77181 20.84698 21.26519 23.74568 20.84698 21.28830 23.76453 20.84698 
21.21970 23.80147 20.84698 21.27247 23.81730 20.84698 21.23553 23.74870 20.84698 
21.26720 23.31966 17.87600 21.21734 23.29620 17.87600 21.24080 23.24634 17.87600 
21.29066 23.26980 17.87600 21.26720 23.31966 19.31797 21.21734 23.29620 19.31797 
21.24080 23.24634 19.31797 21.29066 23.26980 19.31797 21.23741 23.31825 17.87600 
21.21875 23.26641 17.87600 21.27059 23.24775 17.87600 21.28925 23.29959 17.87600 
21.23741 23.31825 19.31797 21.21875 23.26641 19.31797 21.27059 23.24775 19.31797 
21.28925 23.29959 19.31797 21.26720 23.31966 18.59698 21.21734 23.29620 18.59698 
21.24080 23.24634 18.59698 21.29066 23.26980 18.59698 21.28925 23.29959 18.59698 
21.21875 23.26641 18.59698 21.23741 23.31825 18.59698 21.27059 23.24775 18.59698 
CELLS  2   50
24 0 1 2 3 4 5 6 7 8 9 10 11 12 13 14 15 16 17 18 19 20 21 22 23
24 24 25 26 27 28 29 30 31 32 33 34 35 36 37 38 39 40 41 42 43 44 45 46 47
CELL_TYPES  2 
33
33
CELL_DATA  2 
SCALARS average_vol_activity_bq_m3 double 1 
LOOKUP_TABLE default
561.42083
510.78946
SCALARS total_activity_bq double 1 
LOOKUP_TABLE default
7.87617
3.51225
SCALARS mc_error double 1 
LOOKUP_TABLE default
0.00000
0.00000
