# vtk DataFile Version 2.0
DGS printing
ASCII
DATASET UNSTRUCTURED_GRID
POINTS  48  floats
21.28405 23.80780 19.37600 21.22920 23.81305 19.37600 21.22395 23.75820 19.37600 
21.27880 23.75295 19.37600 21.28405 23.80780 22.31797 21.22920 23.81305 22.31797 
21.22395 23.75820 22.31797 21.27880 23.75295 22.31797 21.25771 23.82178 19.37600 
21.21522 23.78671 19.37600 21.25029 23.74422 19.37600 21.29278 23.77929 19.37600 
21.25771 23.82178 22.31797 21.21522 23.78671 22.31797 21.25029 23.74422 22.31797 
21.29278 23.77929 22.31797 21.28405 23.80780 20.84698 21.22920 23.81305 20.84698 
21.22395 23.75820 20.84698 21.27880 23.75295 20.84698 21.29278 23.77929 20.84698 
21.21522 23.78671 20.84698 21.25771 23.82178 20.84698 21.25029 23.74422 20.84698 
21.28537 23.30611 17.87600 21.23089 23.31437 17.87600 21.22263 23.25989 17.87600 
21.27711 23.25163 17.87600 21.28537 23.30611 19.31797 21.23089 23.31437 19.31797 
21.22263 23.25989 19.31797 21.27711 23.25163 19.31797 21.25984 23.32152 17.87600 
21.21548 23.28884 17.87600 21.24816 23.24448 17.87600 21.29252 23.27716 17.87600 
21.25984 23.32152 19.31797 21.21548 23.28884 19.31797 21.24816 23.24448 19.31797 
21.29252 23.27716 19.31797 21.28537 23.30611 18.59698 21.23089 23.31437 18.59698 
21.22263 23.25989 18.59698 21.27711 23.25163 18.59698 21.29252 23.27716 18.59698 
21.21548 23.28884 18.59698 21.25984 23.32152 18.59698 21.24816 23.24448 18.59698 
CELLS  2   50
24 0 1 2 3 4 5 6 7 8 9 10 11 12 13 14 15 16 17 18 19 20 21 22 23
24 24 25 26 27 28 29 30 31 32 33 34 35 36 37 38 39 40 41 42 43 44 45 46 47
CELL_TYPES  2 
33
33
CELL_DATA  2 
SCALARS average_vol_activity_bq_m3 double 1 
LOOKUP_TABLE default
561.42083
437.99813
SCALARS total_activity_bq double 1 
LOOKUP_TABLE default
7.87617
3.01173
SCALARS mc_error double 1 
LOOKUP_TABLE default
0.00000
0.00594
