# vtk DataFile Version 2.0
DGS printing
ASCII
DATASET UNSTRUCTURED_GRID
POINTS  48  floats
21.27980 23.81219 19.37600 21.22481 23.80880 19.37600 21.22820 23.75381 19.37600 
21.28319 23.75720 19.37600 21.27980 23.81219 22.31797 21.22481 23.80880 22.31797 
21.22820 23.75381 22.31797 21.28319 23.75720 22.31797 21.25160 23.82189 19.37600 
21.21511 23.78060 19.37600 21.25640 23.74411 19.37600 21.29289 23.78540 19.37600 
21.25160 23.82189 22.31797 21.21511 23.78060 22.31797 21.25640 23.74411 22.31797 
21.29289 23.78540 22.31797 21.27980 23.81219 20.84698 21.22481 23.80880 20.84698 
21.22820 23.75381 20.84698 21.28319 23.75720 20.84698 21.29289 23.78540 20.84698 
21.21511 23.78060 20.84698 21.25160 23.82189 20.84698 21.25640 23.74411 20.84698 
21.29153 23.29345 17.87600 21.24355 23.32053 17.87600 21.21647 23.27255 17.87600 
21.26445 23.24547 17.87600 21.29153 23.29345 19.31797 21.24355 23.32053 19.31797 
21.21647 23.27255 19.31797 21.26445 23.24547 19.31797 21.27315 23.31693 17.87600 
21.22007 23.30215 17.87600 21.23485 23.24907 17.87600 21.28793 23.26385 17.87600 
21.27315 23.31693 19.31797 21.22007 23.30215 19.31797 21.23485 23.24907 19.31797 
21.28793 23.26385 19.31797 21.29153 23.29345 18.59698 21.24355 23.32053 18.59698 
21.21647 23.27255 18.59698 21.26445 23.24547 18.59698 21.28793 23.26385 18.59698 
21.22007 23.30215 18.59698 21.27315 23.31693 18.59698 21.23485 23.24907 18.59698 
CELLS  2   50
24 0 1 2 3 4 5 6 7 8 9 10 11 12 13 14 15 16 17 18 19 20 21 22 23
24 24 25 26 27 28 29 30 31 32 33 34 35 36 37 38 39 40 41 42 43 44 45 46 47
CELL_TYPES  2 
33
33
CELL_DATA  2 
SCALARS average_vol_activity_bq_m3 double 1 
LOOKUP_TABLE default
561.42083
436.77252
SCALARS total_activity_bq double 1 
LOOKUP_TABLE default
7.87617
3.00330
SCALARS mc_error double 1 
LOOKUP_TABLE default
0.00000
0.00602
SCALARS reynolds double 1 
LOOKUP_TABLE default
333753.35502
709283.61809
SCALARS cumulated_time_s double 1 
LOOKUP_TABLE default
1.38273
2.30590
SCALARS res_time_s double 1 
LOOKUP_TABLE default
1.38273
0.54862
SCALARS mass_flow_kg_s double 1 
LOOKUP_TABLE default
10.00000
12.00000
SCALARS linear_velocity_m_s double 1 
LOOKUP_TABLE default
2.12765
2.62835
