# vtk DataFile Version 2.0
DGS printing
ASCII
DATASET UNSTRUCTURED_GRID
POINTS  48  floats
21.28785 23.80230 19.37600 21.23470 23.81685 19.37600 21.22015 23.76370 19.37600 
21.27330 23.74915 19.37600 21.28785 23.80230 22.31797 21.23470 23.81685 22.31797 
21.22015 23.76370 22.31797 21.27330 23.74915 22.31797 21.26429 23.82058 19.37600 
21.21642 23.79329 19.37600 21.24371 23.74542 19.37600 21.29158 23.77271 19.37600 
21.26429 23.82058 22.31797 21.21642 23.79329 22.31797 21.24371 23.74542 22.31797 
21.29158 23.77271 22.31797 21.28785 23.80230 20.84698 21.23470 23.81685 20.84698 
21.22015 23.76370 20.84698 21.27330 23.74915 20.84698 21.29158 23.77271 20.84698 
21.21642 23.79329 20.84698 21.26429 23.82058 20.84698 21.24371 23.74542 20.84698 
21.27910 23.31279 17.87600 21.22421 23.30810 17.87600 21.22890 23.25321 17.87600 
21.28379 23.25790 17.87600 21.27910 23.31279 19.31797 21.22421 23.30810 19.31797 
21.22890 23.25321 19.31797 21.28379 23.25790 19.31797 21.25068 23.32182 17.87600 
21.21518 23.27968 17.87600 21.25732 23.24418 17.87600 21.29282 23.28632 17.87600 
21.25068 23.32182 19.31797 21.21518 23.27968 19.31797 21.25732 23.24418 19.31797 
21.29282 23.28632 19.31797 21.27910 23.31279 18.59698 21.22421 23.30810 18.59698 
21.22890 23.25321 18.59698 21.28379 23.25790 18.59698 21.29282 23.28632 18.59698 
21.21518 23.27968 18.59698 21.25068 23.32182 18.59698 21.25732 23.24418 18.59698 
CELLS  2   50
24 0 1 2 3 4 5 6 7 8 9 10 11 12 13 14 15 16 17 18 19 20 21 22 23
24 24 25 26 27 28 29 30 31 32 33 34 35 36 37 38 39 40 41 42 43 44 45 46 47
CELL_TYPES  2 
33
33
CELL_DATA  2 
SCALARS average_vol_activity_bq_m3 double 1 
LOOKUP_TABLE default
413.49794
0.00000
SCALARS total_activity_bq double 1 
LOOKUP_TABLE default
5.80096
0.00000
SCALARS mc_error double 1 
LOOKUP_TABLE default
0.00000
0.00000
