# vtk DataFile Version 2.0
DGS printing
ASCII
DATASET UNSTRUCTURED_GRID
POINTS  48  floats
21.28478 23.80689 19.37600 21.23011 23.81378 19.37600 21.22322 23.75911 19.37600 
21.27789 23.75222 19.37600 21.28478 23.80689 22.31797 21.23011 23.81378 22.31797 
21.22322 23.75911 22.31797 21.27789 23.75222 22.31797 21.25887 23.82165 19.37600 
21.21535 23.78787 19.37600 21.24913 23.74435 19.37600 21.29265 23.77813 19.37600 
21.25887 23.82165 22.31797 21.21535 23.78787 22.31797 21.24913 23.74435 22.31797 
21.29265 23.77813 22.31797 21.28478 23.80689 20.84698 21.23011 23.81378 20.84698 
21.22322 23.75911 20.84698 21.27789 23.75222 20.84698 21.29265 23.77813 20.84698 
21.21535 23.78787 20.84698 21.25887 23.82165 20.84698 21.24913 23.74435 20.84698 
21.28087 23.31121 17.87600 21.22579 23.30987 17.87600 21.22713 23.25479 17.87600 
21.28221 23.25613 17.87600 21.28087 23.31121 19.31797 21.22579 23.30987 19.31797 
21.22713 23.25479 19.31797 21.28221 23.25613 19.31797 21.25305 23.32195 17.87600 
21.21505 23.28205 17.87600 21.25495 23.24405 17.87600 21.29295 23.28395 17.87600 
21.25305 23.32195 19.31797 21.21505 23.28205 19.31797 21.25495 23.24405 19.31797 
21.29295 23.28395 19.31797 21.28087 23.31121 18.59698 21.22579 23.30987 18.59698 
21.22713 23.25479 18.59698 21.28221 23.25613 18.59698 21.29295 23.28395 18.59698 
21.21505 23.28205 18.59698 21.25305 23.32195 18.59698 21.25495 23.24405 18.59698 
CELLS  2   50
24 0 1 2 3 4 5 6 7 8 9 10 11 12 13 14 15 16 17 18 19 20 21 22 23
24 24 25 26 27 28 29 30 31 32 33 34 35 36 37 38 39 40 41 42 43 44 45 46 47
CELL_TYPES  2 
33
33
CELL_DATA  2 
SCALARS average_vol_activity_bq_m3 double 1 
LOOKUP_TABLE default
43.18204
0.00000
SCALARS total_activity_bq double 1 
LOOKUP_TABLE default
0.60580
0.00000
SCALARS mc_error double 1 
LOOKUP_TABLE default
0.00000
0.00000
