# vtk DataFile Version 2.0
DGS printing
ASCII
DATASET UNSTRUCTURED_GRID
POINTS  144  floats
21.25637 20.90860 20.10422 21.24428 20.90860 20.09687 21.25163 20.90860 20.08478 
21.26372 20.90860 20.09213 21.25637 19.90860 20.10422 21.24428 19.90860 20.09687 
21.25163 19.90860 20.08478 21.26372 19.90860 20.09213 21.24881 20.90860 20.10304 
21.24546 20.90860 20.08931 21.25919 20.90860 20.08596 21.26254 20.90860 20.09969 
21.24881 19.90860 20.10304 21.24546 19.90860 20.08931 21.25919 19.90860 20.08596 
21.26254 19.90860 20.09969 21.25637 20.40860 20.10422 21.24428 20.40860 20.09687 
21.25163 20.40860 20.08478 21.26372 20.40860 20.09213 21.26254 20.40860 20.09969 
21.24546 20.40860 20.08931 21.24881 20.40860 20.10304 21.25919 20.40860 20.08596 
21.27444 21.90860 20.11646 21.23204 21.90860 20.11494 21.23356 21.90860 20.07254 
21.27596 21.90860 20.07406 21.27444 20.90860 20.11646 21.23204 20.90860 20.11494 
21.23356 20.90860 20.07254 21.27596 20.90860 20.07406 21.25292 21.90860 20.12448 
21.22402 21.90860 20.09342 21.25508 21.90860 20.06452 21.28398 21.90860 20.09558 
21.25292 20.90860 20.12448 21.22402 20.90860 20.09342 21.25508 20.90860 20.06452 
21.28398 20.90860 20.09558 21.27444 21.40860 20.11646 21.23204 21.40860 20.11494 
21.23356 21.40860 20.07254 21.27596 21.40860 20.07406 21.28398 21.40860 20.09558 
21.22402 21.40860 20.09342 21.25292 21.40860 20.12448 21.25508 21.40860 20.06452 
21.29724 22.90860 20.11960 21.27910 22.90860 20.05126 21.21076 22.90860 20.06940 
21.22890 22.90860 20.13774 21.29724 23.90860 20.11960 21.27910 23.90860 20.05126 
21.21076 23.90860 20.06940 21.22890 23.90860 20.13774 21.30233 22.90860 20.08167 
21.24117 22.90860 20.04617 21.20567 22.90860 20.10733 21.26683 22.90860 20.14283 
21.30233 23.90860 20.08167 21.24117 23.90860 20.04617 21.20567 23.90860 20.10733 
21.26683 23.90860 20.14283 21.29724 23.40860 20.11960 21.27910 23.40860 20.05126 
21.21076 23.40860 20.06940 21.22890 23.40860 20.13774 21.26683 23.40860 20.14283 
21.24117 23.40860 20.04617 21.30233 23.40860 20.08167 21.20567 23.40860 20.10733 
21.29629 23.90860 20.12117 21.28067 23.90860 20.05221 21.21171 23.90860 20.06783 
21.22733 23.90860 20.13679 21.29629 26.90860 20.12117 21.28067 26.90860 20.05221 
21.21171 26.90860 20.06783 21.22733 26.90860 20.13679 21.30276 23.90860 20.08345 
21.24295 23.90860 20.04574 21.20524 23.90860 20.10555 21.26505 23.90860 20.14326 
21.30276 26.90860 20.08345 21.24295 26.90860 20.04574 21.20524 26.90860 20.10555 
21.26505 26.90860 20.14326 21.29629 25.40860 20.12117 21.28067 25.40860 20.05221 
21.21171 25.40860 20.06783 21.22733 25.40860 20.13679 21.26505 25.40860 20.14326 
21.24295 25.40860 20.04574 21.30276 25.40860 20.08345 21.20524 25.40860 20.10555 
21.28629 27.22820 20.13268 21.29218 27.22820 20.06221 21.22171 27.22820 20.05632 
21.21582 27.22820 20.12679 21.28629 28.22820 20.13268 21.29218 28.22820 20.06221 
21.22171 28.22820 20.05632 21.21582 28.22820 20.12679 21.30383 27.22820 20.09867 
21.25817 27.22820 20.04467 21.20417 27.22820 20.09033 21.24983 27.22820 20.14433 
21.30383 28.22820 20.09867 21.25817 28.22820 20.04467 21.20417 28.22820 20.09033 
21.24983 28.22820 20.14433 21.28629 27.72820 20.13268 21.29218 27.72820 20.06221 
21.22171 27.72820 20.05632 21.21582 27.72820 20.12679 21.24983 27.72820 20.14433 
21.25817 27.72820 20.04467 21.30383 27.72820 20.09867 21.20417 27.72820 20.09033 
21.29280 28.53440 20.12603 21.28553 28.53440 20.05570 21.21520 28.53440 20.06297 
21.22247 28.53440 20.13330 21.29280 29.53440 20.12603 21.28553 29.53440 20.05570 
21.21520 29.53440 20.06297 21.22247 29.53440 20.13330 21.30374 28.53440 20.08936 
21.24886 28.53440 20.04476 21.20426 28.53440 20.09964 21.25914 28.53440 20.14424 
21.30374 29.53440 20.08936 21.24886 29.53440 20.04476 21.20426 29.53440 20.09964 
21.25914 29.53440 20.14424 21.29280 29.03440 20.12603 21.28553 29.03440 20.05570 
21.21520 29.03440 20.06297 21.22247 29.03440 20.13330 21.25914 29.03440 20.14424 
21.24886 29.03440 20.04476 21.30374 29.03440 20.08936 21.20426 29.03440 20.09964 
CELLS  6   150
24 0 1 2 3 4 5 6 7 8 9 10 11 12 13 14 15 16 17 18 19 20 21 22 23
24 24 25 26 27 28 29 30 31 32 33 34 35 36 37 38 39 40 41 42 43 44 45 46 47
24 48 49 50 51 52 53 54 55 56 57 58 59 60 61 62 63 64 65 66 67 68 69 70 71
24 72 73 74 75 76 77 78 79 80 81 82 83 84 85 86 87 88 89 90 91 92 93 94 95
24 96 97 98 99 100 101 102 103 104 105 106 107 108 109 110 111 112 113 114 115 116 117 118 119
24 120 121 122 123 124 125 126 127 128 129 130 131 132 133 134 135 136 137 138 139 140 141 142 143
CELL_TYPES  6 
33
33
33
33
33
33
CELL_DATA  6 
SCALARS average_vol_activity_bq_m3 double 1 
LOOKUP_TABLE default
98.49695
53.71045
0.00000
0.00000
0.00000
0.00000
SCALARS total_activity_bq double 1 
LOOKUP_TABLE default
0.03094
0.15186
0.00000
0.00000
0.00000
0.00000
SCALARS mc_error double 1 
LOOKUP_TABLE default
0.00000
0.00000
0.00000
0.00000
0.00000
0.00000
