# vtk DataFile Version 2.0
DGS printing
ASCII
DATASET UNSTRUCTURED_GRID
POINTS  144  floats
21.26342 20.90860 20.09786 21.25064 20.90860 20.10392 21.24458 20.90860 20.09114 
21.25736 20.90860 20.08508 21.26342 19.90860 20.09786 21.25064 19.90860 20.10392 
21.24458 19.90860 20.09114 21.25736 19.90860 20.08508 21.25828 20.90860 20.10354 
21.24496 20.90860 20.09878 21.24972 20.90860 20.08546 21.26304 20.90860 20.09022 
21.25828 19.90860 20.10354 21.24496 19.90860 20.09878 21.24972 19.90860 20.08546 
21.26304 19.90860 20.09022 21.26342 20.40860 20.09786 21.25064 20.40860 20.10392 
21.24458 20.40860 20.09114 21.25736 20.40860 20.08508 21.26304 20.40860 20.09022 
21.24496 20.40860 20.09878 21.25828 20.40860 20.10354 21.24972 20.40860 20.08546 
21.28038 21.90860 20.10879 21.23971 21.90860 20.12088 21.22762 21.90860 20.08021 
21.26829 21.90860 20.06812 21.28038 20.90860 20.10879 21.23971 20.90860 20.12088 
21.22762 20.90860 20.08021 21.26829 20.90860 20.06812 21.26255 21.90860 20.12326 
21.22524 21.90860 20.10305 21.24545 21.90860 20.06574 21.28276 21.90860 20.08595 
21.26255 20.90860 20.12326 21.22524 20.90860 20.10305 21.24545 20.90860 20.06574 
21.28276 20.90860 20.08595 21.28038 21.40860 20.10879 21.23971 21.40860 20.12088 
21.22762 21.40860 20.08021 21.26829 21.40860 20.06812 21.28276 21.40860 20.08595 
21.22524 21.40860 20.10305 21.26255 21.40860 20.12326 21.24545 21.40860 20.06574 
21.27514 22.90860 20.13981 21.29931 22.90860 20.07336 21.23286 22.90860 20.04919 
21.20869 22.90860 20.11564 21.27514 23.90860 20.13981 21.29931 23.90860 20.07336 
21.23286 23.90860 20.04919 21.20869 23.90860 20.11564 21.30099 22.90860 20.11159 
21.27109 22.90860 20.04751 21.20701 22.90860 20.07741 21.23691 22.90860 20.14149 
21.30099 23.90860 20.11159 21.27109 23.90860 20.04751 21.20701 23.90860 20.07741 
21.23691 23.90860 20.14149 21.27514 23.40860 20.13981 21.29931 23.40860 20.07336 
21.23286 23.40860 20.04919 21.20869 23.40860 20.11564 21.23691 23.40860 20.14149 
21.27109 23.40860 20.04751 21.30099 23.40860 20.11159 21.20701 23.40860 20.07741 
21.29290 23.90860 20.12591 21.28541 23.90860 20.05560 21.21510 23.90860 20.06309 
21.22259 23.90860 20.13340 21.29290 26.90860 20.12591 21.28541 26.90860 20.05560 
21.21510 26.90860 20.06309 21.22259 26.90860 20.13340 21.30372 23.90860 20.08921 
21.24871 23.90860 20.04478 21.20428 23.90860 20.09979 21.25929 23.90860 20.14422 
21.30372 26.90860 20.08921 21.24871 26.90860 20.04478 21.20428 26.90860 20.09979 
21.25929 26.90860 20.14422 21.29290 25.40860 20.12591 21.28541 25.40860 20.05560 
21.21510 25.40860 20.06309 21.22259 25.40860 20.13340 21.25929 25.40860 20.14422 
21.24871 25.40860 20.04478 21.30372 25.40860 20.08921 21.20428 25.40860 20.09979 
21.29403 27.22820 20.12445 21.28395 27.22820 20.05447 21.21397 27.22820 20.06455 
21.22405 27.22820 20.13453 21.29403 28.22820 20.12445 21.28395 28.22820 20.05447 
21.21397 28.22820 20.06455 21.22405 28.22820 20.13453 21.30349 27.22820 20.08737 
21.24687 27.22820 20.04501 21.20451 27.22820 20.10163 21.26113 27.22820 20.14399 
21.30349 28.22820 20.08737 21.24687 28.22820 20.04501 21.20451 28.22820 20.10163 
21.26113 28.22820 20.14399 21.29403 27.72820 20.12445 21.28395 27.72820 20.05447 
21.21397 27.72820 20.06455 21.22405 27.72820 20.13453 21.26113 27.72820 20.14399 
21.24687 27.72820 20.04501 21.30349 27.72820 20.08737 21.20451 27.72820 20.10163 
21.29323 28.53440 20.12550 21.28500 28.53440 20.05527 21.21477 28.53440 20.06350 
21.22300 28.53440 20.13373 21.29323 29.53440 20.12550 21.28500 29.53440 20.05527 
21.21477 29.53440 20.06350 21.22300 29.53440 20.13373 21.30366 28.53440 20.08868 
21.24818 28.53440 20.04484 21.20434 28.53440 20.10032 21.25982 28.53440 20.14416 
21.30366 29.53440 20.08868 21.24818 29.53440 20.04484 21.20434 29.53440 20.10032 
21.25982 29.53440 20.14416 21.29323 29.03440 20.12550 21.28500 29.03440 20.05527 
21.21477 29.03440 20.06350 21.22300 29.03440 20.13373 21.25982 29.03440 20.14416 
21.24818 29.03440 20.04484 21.30366 29.03440 20.08868 21.20434 29.03440 20.10032 
CELLS  6   150
24 0 1 2 3 4 5 6 7 8 9 10 11 12 13 14 15 16 17 18 19 20 21 22 23
24 24 25 26 27 28 29 30 31 32 33 34 35 36 37 38 39 40 41 42 43 44 45 46 47
24 48 49 50 51 52 53 54 55 56 57 58 59 60 61 62 63 64 65 66 67 68 69 70 71
24 72 73 74 75 76 77 78 79 80 81 82 83 84 85 86 87 88 89 90 91 92 93 94 95
24 96 97 98 99 100 101 102 103 104 105 106 107 108 109 110 111 112 113 114 115 116 117 118 119
24 120 121 122 123 124 125 126 127 128 129 130 131 132 133 134 135 136 137 138 139 140 141 142 143
CELL_TYPES  6 
33
33
33
33
33
33
CELL_DATA  6 
SCALARS average_vol_activity_bq_m3 double 1 
LOOKUP_TABLE default
98.49695
84.88244
43.03460
11.32804
2.06556
0.96681
SCALARS total_activity_bq double 1 
LOOKUP_TABLE default
0.03094
0.24000
0.33799
0.26691
0.01622
0.00759
SCALARS mc_error double 1 
LOOKUP_TABLE default
0.00000
0.00000
0.00000
0.00000
0.00000
0.00000
SCALARS reynolds double 1 
LOOKUP_TABLE default
91796.62629
30598.88625
18359.31357
18359.34474
18359.31357
18359.31357
SCALARS cumulated_time_s double 1 
LOOKUP_TABLE default
0.31236
3.12358
12.83758
36.26438
44.07332
51.88227
SCALARS res_time_s double 1 
LOOKUP_TABLE default
0.31236
2.81122
7.80895
23.42680
7.80895
7.80895
SCALARS mass_flow_kg_s double 1 
LOOKUP_TABLE default
1.00000
1.00000
1.00000
1.00000
1.00000
1.00000
SCALARS linear_velocity_m_s double 1 
LOOKUP_TABLE default
3.20146
0.35572
0.12806
0.12806
0.12806
0.12806
