# vtk DataFile Version 2.0
DGS printing
ASCII
DATASET UNSTRUCTURED_GRID
POINTS  144  floats
21.25804 20.90860 20.10365 21.24485 20.90860 20.09854 21.24996 20.90860 20.08535 
21.26315 20.90860 20.09046 21.25804 19.90860 20.10365 21.24485 19.90860 20.09854 
21.24996 19.90860 20.08535 21.26315 19.90860 20.09046 21.25038 20.90860 20.10382 
21.24468 20.90860 20.09088 21.25762 20.90860 20.08518 21.26332 20.90860 20.09812 
21.25038 19.90860 20.10382 21.24468 19.90860 20.09088 21.25762 19.90860 20.08518 
21.26332 19.90860 20.09812 21.25804 20.40860 20.10365 21.24485 20.40860 20.09854 
21.24996 20.40860 20.08535 21.26315 20.40860 20.09046 21.26332 20.40860 20.09812 
21.24468 20.40860 20.09088 21.25038 20.40860 20.10382 21.25762 20.40860 20.08518 
21.26671 21.90860 20.12167 21.22683 21.90860 20.10721 21.24129 21.90860 20.06733 
21.28117 21.90860 20.08179 21.26671 20.90860 20.12167 21.22683 20.90860 20.10721 
21.24129 20.90860 20.06733 21.28117 20.90860 20.08179 21.24378 21.90860 20.12270 
21.22580 21.90860 20.08428 21.26422 21.90860 20.06630 21.28220 21.90860 20.10472 
21.24378 20.90860 20.12270 21.22580 20.90860 20.08428 21.26422 20.90860 20.06630 
21.28220 20.90860 20.10472 21.26671 21.40860 20.12167 21.22683 21.40860 20.10721 
21.24129 21.40860 20.06733 21.28117 21.40860 20.08179 21.28220 21.40860 20.10472 
21.22580 21.40860 20.08428 21.24378 21.40860 20.12270 21.26422 21.40860 20.06630 
21.30320 22.90860 20.10344 21.26294 22.90860 20.04530 21.20480 22.90860 20.08556 
21.24506 22.90860 20.14370 21.30320 23.90860 20.10344 21.26294 23.90860 20.04530 
21.20480 23.90860 20.08556 21.24506 23.90860 20.14370 21.29510 22.90860 20.06603 
21.22553 22.90860 20.05340 21.21290 22.90860 20.12297 21.28247 22.90860 20.13560 
21.29510 23.90860 20.06603 21.22553 23.90860 20.05340 21.21290 23.90860 20.12297 
21.28247 23.90860 20.13560 21.30320 23.40860 20.10344 21.26294 23.40860 20.04530 
21.20480 23.40860 20.08556 21.24506 23.40860 20.14370 21.28247 23.40860 20.13560 
21.22553 23.40860 20.05340 21.29510 23.40860 20.06603 21.21290 23.40860 20.12297 
21.28424 23.90860 20.13432 21.29382 23.90860 20.06426 21.22376 23.90860 20.05468 
21.21418 23.90860 20.12474 21.28424 26.90860 20.13432 21.29382 26.90860 20.06426 
21.22376 26.90860 20.05468 21.21418 26.90860 20.12474 21.30354 23.90860 20.10128 
21.26078 23.90860 20.04496 21.20446 23.90860 20.08772 21.24722 23.90860 20.14404 
21.30354 26.90860 20.10128 21.26078 26.90860 20.04496 21.20446 26.90860 20.08772 
21.24722 26.90860 20.14404 21.28424 25.40860 20.13432 21.29382 25.40860 20.06426 
21.22376 25.40860 20.05468 21.21418 25.40860 20.12474 21.24722 25.40860 20.14404 
21.26078 25.40860 20.04496 21.30354 25.40860 20.10128 21.20446 25.40860 20.08772 
21.26899 27.22820 20.14220 21.30170 27.22820 20.07951 21.23901 27.22820 20.04680 
21.20630 27.22820 20.10949 21.26899 28.22820 20.14220 21.30170 28.22820 20.07951 
21.23901 28.22820 20.04680 21.20630 28.22820 20.10949 21.29833 27.22820 20.11763 
21.27713 27.22820 20.05017 21.20967 27.22820 20.07137 21.23087 27.22820 20.13883 
21.29833 28.22820 20.11763 21.27713 28.22820 20.05017 21.20967 28.22820 20.07137 
21.23087 28.22820 20.13883 21.26899 27.72820 20.14220 21.30170 27.72820 20.07951 
21.23901 27.72820 20.04680 21.20630 27.72820 20.10949 21.23087 27.72820 20.13883 
21.27713 27.72820 20.05017 21.29833 27.72820 20.11763 21.20967 27.72820 20.07137 
21.26183 28.53440 20.14388 21.30338 28.53440 20.08667 21.24617 28.53440 20.04512 
21.20462 28.53440 20.10233 21.26183 29.53440 20.14388 21.30338 29.53440 20.08667 
21.24617 29.53440 20.04512 21.20462 29.53440 20.10233 21.29446 28.53440 20.12388 
21.28338 28.53440 20.05404 21.21354 28.53440 20.06512 21.22462 28.53440 20.13496 
21.29446 29.53440 20.12388 21.28338 29.53440 20.05404 21.21354 29.53440 20.06512 
21.22462 29.53440 20.13496 21.26183 29.03440 20.14388 21.30338 29.03440 20.08667 
21.24617 29.03440 20.04512 21.20462 29.03440 20.10233 21.22462 29.03440 20.13496 
21.28338 29.03440 20.05404 21.29446 29.03440 20.12388 21.21354 29.03440 20.06512 
CELLS  6   150
24 0 1 2 3 4 5 6 7 8 9 10 11 12 13 14 15 16 17 18 19 20 21 22 23
24 24 25 26 27 28 29 30 31 32 33 34 35 36 37 38 39 40 41 42 43 44 45 46 47
24 48 49 50 51 52 53 54 55 56 57 58 59 60 61 62 63 64 65 66 67 68 69 70 71
24 72 73 74 75 76 77 78 79 80 81 82 83 84 85 86 87 88 89 90 91 92 93 94 95
24 96 97 98 99 100 101 102 103 104 105 106 107 108 109 110 111 112 113 114 115 116 117 118 119
24 120 121 122 123 124 125 126 127 128 129 130 131 132 133 134 135 136 137 138 139 140 141 142 143
CELL_TYPES  6 
33
33
33
33
33
33
CELL_DATA  6 
SCALARS average_vol_activity_bq_m3 double 1 
LOOKUP_TABLE default
98.49695
84.88244
43.02630
11.32586
2.06517
0.96663
SCALARS total_activity_bq double 1 
LOOKUP_TABLE default
0.03094
0.24000
0.33793
0.26686
0.01622
0.00759
SCALARS mc_error double 1 
LOOKUP_TABLE default
0.00000
0.00000
0.00040
0.00040
0.00040
0.00040
