# vtk DataFile Version 2.0
DGS printing
ASCII
DATASET UNSTRUCTURED_GRID
POINTS  144  floats
21.26319 20.90860 20.09845 21.25005 20.90860 20.10369 21.24481 20.90860 20.09055 
21.25795 20.90860 20.08531 21.26319 19.90860 20.09845 21.25005 19.90860 20.10369 
21.24481 19.90860 20.09055 21.25795 19.90860 20.08531 21.25770 20.90860 20.10379 
21.24471 20.90860 20.09820 21.25030 20.90860 20.08521 21.26329 20.90860 20.09080 
21.25770 19.90860 20.10379 21.24471 19.90860 20.09820 21.25030 19.90860 20.08521 
21.26329 19.90860 20.09080 21.26319 20.40860 20.09845 21.25005 20.40860 20.10369 
21.24481 20.40860 20.09055 21.25795 20.40860 20.08531 21.26329 20.40860 20.09080 
21.24471 20.40860 20.09820 21.25770 20.40860 20.10379 21.25030 20.40860 20.08521 
21.27483 21.90860 20.11609 21.23241 21.90860 20.11533 21.23317 21.90860 20.07291 
21.27559 21.90860 20.07367 21.27483 20.90860 20.11609 21.23241 20.90860 20.11533 
21.23317 20.90860 20.07291 21.27559 20.90860 20.07367 21.25347 21.90860 20.12450 
21.22400 21.90860 20.09397 21.25453 21.90860 20.06450 21.28400 21.90860 20.09503 
21.25347 20.90860 20.12450 21.22400 20.90860 20.09397 21.25453 20.90860 20.06450 
21.28400 20.90860 20.09503 21.27483 21.40860 20.11609 21.23241 21.40860 20.11533 
21.23317 21.40860 20.07291 21.27559 21.40860 20.07367 21.28400 21.40860 20.09503 
21.22400 21.40860 20.09397 21.25347 21.40860 20.12450 21.25453 21.40860 20.06450 
21.30025 22.90860 20.11350 21.27300 22.90860 20.04825 21.20775 22.90860 20.07550 
21.23500 22.90860 20.14075 21.30025 23.90860 20.11350 21.27300 23.90860 20.04825 
21.20775 23.90860 20.07550 21.23500 23.90860 20.14075 21.30014 22.90860 20.07523 
21.23473 22.90860 20.04836 21.20786 22.90860 20.11377 21.27327 22.90860 20.14064 
21.30014 23.90860 20.07523 21.23473 23.90860 20.04836 21.20786 23.90860 20.11377 
21.27327 23.90860 20.14064 21.30025 23.40860 20.11350 21.27300 23.40860 20.04825 
21.20775 23.40860 20.07550 21.23500 23.40860 20.14075 21.27327 23.40860 20.14064 
21.23473 23.40860 20.04836 21.30014 23.40860 20.07523 21.20786 23.40860 20.11377 
21.28098 23.90860 20.13660 21.29610 23.90860 20.06752 21.22702 23.90860 20.05240 
21.21190 23.90860 20.12148 21.28098 26.90860 20.13660 21.29610 26.90860 20.06752 
21.22702 26.90860 20.05240 21.21190 26.90860 20.12148 21.30284 23.90860 20.10519 
21.26469 23.90860 20.04566 21.20516 23.90860 20.08381 21.24331 23.90860 20.14334 
21.30284 26.90860 20.10519 21.26469 26.90860 20.04566 21.20516 26.90860 20.08381 
21.24331 26.90860 20.14334 21.28098 25.40860 20.13660 21.29610 25.40860 20.06752 
21.22702 25.40860 20.05240 21.21190 25.40860 20.12148 21.24331 25.40860 20.14334 
21.26469 25.40860 20.04566 21.30284 25.40860 20.10519 21.20516 25.40860 20.08381 
21.30321 27.22820 20.10337 21.26287 27.22820 20.04529 21.20479 27.22820 20.08563 
21.24513 27.22820 20.14371 21.30321 28.22820 20.10337 21.26287 28.22820 20.04529 
21.20479 28.22820 20.08563 21.24513 28.22820 20.14371 21.29507 27.22820 20.06598 
21.22548 27.22820 20.05343 21.21293 27.22820 20.12302 21.28252 27.22820 20.13557 
21.29507 28.22820 20.06598 21.22548 28.22820 20.05343 21.21293 28.22820 20.12302 
21.28252 28.22820 20.13557 21.30321 27.72820 20.10337 21.26287 27.72820 20.04529 
21.20479 27.72820 20.08563 21.24513 27.72820 20.14371 21.28252 27.72820 20.13557 
21.22548 27.72820 20.05343 21.29507 27.72820 20.06598 21.21293 27.72820 20.12302 
21.28276 28.53440 20.13540 21.29490 28.53440 20.06574 21.22524 28.53440 20.05360 
21.21310 28.53440 20.12326 21.28276 29.53440 20.13540 21.29490 29.53440 20.06574 
21.22524 29.53440 20.05360 21.21310 29.53440 20.12326 21.30326 28.53440 20.10309 
21.26259 28.53440 20.04524 21.20474 28.53440 20.08591 21.24541 28.53440 20.14376 
21.30326 29.53440 20.10309 21.26259 29.53440 20.04524 21.20474 29.53440 20.08591 
21.24541 29.53440 20.14376 21.28276 29.03440 20.13540 21.29490 29.03440 20.06574 
21.22524 29.03440 20.05360 21.21310 29.03440 20.12326 21.24541 29.03440 20.14376 
21.26259 29.03440 20.04524 21.30326 29.03440 20.10309 21.20474 29.03440 20.08591 
CELLS  6   150
24 0 1 2 3 4 5 6 7 8 9 10 11 12 13 14 15 16 17 18 19 20 21 22 23
24 24 25 26 27 28 29 30 31 32 33 34 35 36 37 38 39 40 41 42 43 44 45 46 47
24 48 49 50 51 52 53 54 55 56 57 58 59 60 61 62 63 64 65 66 67 68 69 70 71
24 72 73 74 75 76 77 78 79 80 81 82 83 84 85 86 87 88 89 90 91 92 93 94 95
24 96 97 98 99 100 101 102 103 104 105 106 107 108 109 110 111 112 113 114 115 116 117 118 119
24 120 121 122 123 124 125 126 127 128 129 130 131 132 133 134 135 136 137 138 139 140 141 142 143
CELL_TYPES  6 
33
33
33
33
33
33
CELL_DATA  6 
SCALARS average_vol_activity_bq_m3 double 1 
LOOKUP_TABLE default
98.49695
84.88244
31.06614
0.00000
0.00000
0.00000
SCALARS total_activity_bq double 1 
LOOKUP_TABLE default
0.03094
0.24000
0.24399
0.00000
0.00000
0.00000
SCALARS mc_error double 1 
LOOKUP_TABLE default
0.00000
0.00000
0.00103
0.00000
0.00000
0.00000
