# vtk DataFile Version 2.0
DGS printing
ASCII
DATASET UNSTRUCTURED_GRID
POINTS  144  floats
21.26058 20.90860 20.10203 21.24647 20.90860 20.10108 21.24742 20.90860 20.08697 
21.26153 20.90860 20.08792 21.26058 19.90860 20.10203 21.24647 19.90860 20.10108 
21.24742 19.90860 20.08697 21.26153 19.90860 20.08792 21.25333 20.90860 20.10448 
21.24402 20.90860 20.09383 21.25467 20.90860 20.08452 21.26398 20.90860 20.09517 
21.25333 19.90860 20.10448 21.24402 19.90860 20.09383 21.25467 19.90860 20.08452 
21.26398 19.90860 20.09517 21.26058 20.40860 20.10203 21.24647 20.40860 20.10108 
21.24742 20.40860 20.08697 21.26153 20.40860 20.08792 21.26398 20.40860 20.09517 
21.24402 20.40860 20.09383 21.25333 20.40860 20.10448 21.25467 20.40860 20.08452 
21.28093 21.90860 20.10772 21.24078 21.90860 20.12143 21.22707 21.90860 20.08128 
21.26722 21.90860 20.06757 21.28093 20.90860 20.10772 21.24078 20.90860 20.12143 
21.22707 20.90860 20.08128 21.26722 20.90860 20.06757 21.26369 21.90860 20.12289 
21.22561 21.90860 20.10419 21.24431 21.90860 20.06611 21.28239 21.90860 20.08481 
21.26369 20.90860 20.12289 21.22561 20.90860 20.10419 21.24431 20.90860 20.06611 
21.28239 20.90860 20.08481 21.28093 21.40860 20.10772 21.24078 21.40860 20.12143 
21.22707 21.40860 20.08128 21.26722 21.40860 20.06757 21.28239 21.40860 20.08481 
21.22561 21.40860 20.10419 21.26369 21.40860 20.12289 21.24431 21.40860 20.06611 
21.28180 22.90860 20.13606 21.29556 22.90860 20.06670 21.22620 22.90860 20.05294 
21.21244 22.90860 20.12230 21.28180 23.90860 20.13606 21.29556 23.90860 20.06670 
21.22620 23.90860 20.05294 21.21244 23.90860 20.12230 21.30304 22.90860 20.10423 
21.26373 22.90860 20.04546 21.20496 22.90860 20.08477 21.24427 22.90860 20.14354 
21.30304 23.90860 20.10423 21.26373 23.90860 20.04546 21.20496 23.90860 20.08477 
21.24427 23.90860 20.14354 21.28180 23.40860 20.13606 21.29556 23.40860 20.06670 
21.22620 23.40860 20.05294 21.21244 23.40860 20.12230 21.24427 23.40860 20.14354 
21.26373 23.40860 20.04546 21.30304 23.40860 20.10423 21.20496 23.40860 20.08477 
21.25632 23.90860 20.14445 21.30395 23.90860 20.09218 21.25168 23.90860 20.04455 
21.20405 23.90860 20.09682 21.25632 26.90860 20.14445 21.30395 26.90860 20.09218 
21.25168 26.90860 20.04455 21.20405 26.90860 20.09682 21.29096 23.90860 20.12818 
21.28768 23.90860 20.05754 21.21704 23.90860 20.06082 21.22032 23.90860 20.13146 
21.29096 26.90860 20.12818 21.28768 26.90860 20.05754 21.21704 26.90860 20.06082 
21.22032 26.90860 20.13146 21.25632 25.40860 20.14445 21.30395 25.40860 20.09218 
21.25168 25.40860 20.04455 21.20405 25.40860 20.09682 21.22032 25.40860 20.13146 
21.28768 25.40860 20.05754 21.29096 25.40860 20.12818 21.21704 25.40860 20.06082 
21.30114 27.22820 20.11118 21.27068 27.22820 20.04736 21.20686 27.22820 20.07782 
21.23732 27.22820 20.14164 21.30114 28.22820 20.11118 21.27068 28.22820 20.04736 
21.20686 28.22820 20.07782 21.23732 28.22820 20.14164 21.29912 27.22820 20.07296 
21.23246 27.22820 20.04938 21.20888 27.22820 20.11604 21.27554 27.22820 20.13962 
21.29912 28.22820 20.07296 21.23246 28.22820 20.04938 21.20888 28.22820 20.11604 
21.27554 28.22820 20.13962 21.30114 27.72820 20.11118 21.27068 27.72820 20.04736 
21.20686 27.72820 20.07782 21.23732 27.72820 20.14164 21.27554 27.72820 20.13962 
21.23246 27.72820 20.04938 21.29912 27.72820 20.07296 21.20888 27.72820 20.11604 
21.28752 28.53440 20.13160 21.29110 28.53440 20.06098 21.22048 28.53440 20.05740 
21.21690 28.53440 20.12802 21.28752 29.53440 20.13160 21.29110 29.53440 20.06098 
21.22048 29.53440 20.05740 21.21690 29.53440 20.12802 21.30394 28.53440 20.09703 
21.25653 28.53440 20.04456 21.20406 28.53440 20.09197 21.25147 28.53440 20.14444 
21.30394 29.53440 20.09703 21.25653 29.53440 20.04456 21.20406 29.53440 20.09197 
21.25147 29.53440 20.14444 21.28752 29.03440 20.13160 21.29110 29.03440 20.06098 
21.22048 29.03440 20.05740 21.21690 29.03440 20.12802 21.25147 29.03440 20.14444 
21.25653 29.03440 20.04456 21.30394 29.03440 20.09703 21.20406 29.03440 20.09197 
CELLS  6   150
24 0 1 2 3 4 5 6 7 8 9 10 11 12 13 14 15 16 17 18 19 20 21 22 23
24 24 25 26 27 28 29 30 31 32 33 34 35 36 37 38 39 40 41 42 43 44 45 46 47
24 48 49 50 51 52 53 54 55 56 57 58 59 60 61 62 63 64 65 66 67 68 69 70 71
24 72 73 74 75 76 77 78 79 80 81 82 83 84 85 86 87 88 89 90 91 92 93 94 95
24 96 97 98 99 100 101 102 103 104 105 106 107 108 109 110 111 112 113 114 115 116 117 118 119
24 120 121 122 123 124 125 126 127 128 129 130 131 132 133 134 135 136 137 138 139 140 141 142 143
CELL_TYPES  6 
33
33
33
33
33
33
CELL_DATA  6 
SCALARS average_vol_activity_bq_m3 double 1 
LOOKUP_TABLE default
98.49695
84.88244
2.03095
0.00000
0.00000
0.00000
SCALARS total_activity_bq double 1 
LOOKUP_TABLE default
0.03094
0.24000
0.01595
0.00000
0.00000
0.00000
SCALARS mc_error double 1 
LOOKUP_TABLE default
0.00000
0.00000
0.00798
0.00000
0.00000
0.00000
