# vtk DataFile Version 2.0
DGS printing
ASCII
DATASET UNSTRUCTURED_GRID
POINTS  72  floats
21.27865 19.81317 20.81800 21.28417 19.75835 20.81800 21.22935 19.75283 20.81800 
21.22383 19.80765 20.81800 21.27865 19.81317 19.37603 21.28417 19.75835 19.37603 
21.22935 19.75283 19.37603 21.22383 19.80765 19.37603 21.29276 19.78691 20.81800 
21.25791 19.74424 20.81800 21.21524 19.77909 20.81800 21.25009 19.82176 20.81800 
21.29276 19.78691 19.37603 21.25791 19.74424 19.37603 21.21524 19.77909 19.37603 
21.25009 19.82176 19.37603 21.27865 19.81317 20.09702 21.28417 19.75835 20.09702 
21.22935 19.75283 20.09702 21.22383 19.80765 20.09702 21.25009 19.82176 20.09702 
21.25791 19.74424 20.09702 21.29276 19.78691 20.09702 21.21524 19.77909 20.09702 
21.26819 20.81928 17.93410 21.21772 20.79719 17.93410 21.23981 20.74672 17.93410 
21.29028 20.76881 17.93410 21.26819 20.81928 19.37607 21.21772 20.79719 19.37607 
21.23981 20.74672 19.37607 21.29028 20.76881 19.37607 21.23838 20.81869 17.93410 
21.21831 20.76738 17.93410 21.26962 20.74731 17.93410 21.28969 20.79862 17.93410 
21.23838 20.81869 19.37607 21.21831 20.76738 19.37607 21.26962 20.74731 19.37607 
21.28969 20.79862 19.37607 21.26819 20.81928 18.65508 21.21772 20.79719 18.65508 
21.23981 20.74672 18.65508 21.29028 20.76881 18.65508 21.28969 20.79862 18.65508 
21.21831 20.76738 18.65508 21.23838 20.81869 18.65508 21.26962 20.74731 18.65508 
21.28806 20.80191 16.37600 21.23509 20.81706 16.37600 21.21994 20.76409 16.37600 
21.27291 20.74894 16.37600 21.28806 20.80191 17.81797 21.23509 20.81706 17.81797 
21.21994 20.76409 17.81797 21.27291 20.74894 17.81797 21.26471 20.82046 16.37600 
21.21654 20.79371 16.37600 21.24329 20.74554 16.37600 21.29146 20.77229 16.37600 
21.26471 20.82046 17.81797 21.21654 20.79371 17.81797 21.24329 20.74554 17.81797 
21.29146 20.77229 17.81797 21.28806 20.80191 17.09698 21.23509 20.81706 17.09698 
21.21994 20.76409 17.09698 21.27291 20.74894 17.09698 21.29146 20.77229 17.09698 
21.21654 20.79371 17.09698 21.26471 20.82046 17.09698 21.24329 20.74554 17.09698 
CELLS  3   75
24 0 1 2 3 4 5 6 7 8 9 10 11 12 13 14 15 16 17 18 19 20 21 22 23
24 24 25 26 27 28 29 30 31 32 33 34 35 36 37 38 39 40 41 42 43 44 45 46 47
24 48 49 50 51 52 53 54 55 56 57 58 59 60 61 62 63 64 65 66 67 68 69 70 71
CELL_TYPES  3 
33
33
33
CELL_DATA  3 
SCALARS average_vol_activity_bq_m3 double 1 
LOOKUP_TABLE default
68.06209
90.25774
86.55678
SCALARS total_activity_bq double 1 
LOOKUP_TABLE default
0.46800
0.62062
0.59518
SCALARS mc_error double 1 
LOOKUP_TABLE default
0.00000
0.00000
0.00000
