# vtk DataFile Version 2.0
DGS printing
ASCII
DATASET UNSTRUCTURED_GRID
POINTS  72  floats
21.29289 19.78529 20.81800 21.25629 19.74411 20.81800 21.21511 19.78071 20.81800 
21.25171 19.82189 20.81800 21.29289 19.78529 19.37603 21.25629 19.74411 19.37603 
21.21511 19.78071 19.37603 21.25171 19.82189 19.37603 21.28312 19.75712 20.81800 
21.22812 19.75388 20.81800 21.22488 19.80888 20.81800 21.27988 19.81212 20.81800 
21.28312 19.75712 19.37603 21.22812 19.75388 19.37603 21.22488 19.80888 19.37603 
21.27988 19.81212 19.37603 21.29289 19.78529 20.09702 21.25629 19.74411 20.09702 
21.21511 19.78071 20.09702 21.25171 19.82189 20.09702 21.27988 19.81212 20.09702 
21.22812 19.75388 20.09702 21.28312 19.75712 20.09702 21.22488 19.80888 20.09702 
21.27203 20.81754 17.93410 21.21946 20.80103 17.93410 21.23597 20.74846 17.93410 
21.28854 20.76497 17.93410 21.27203 20.81754 19.37607 21.21946 20.80103 19.37607 
21.23597 20.74846 19.37607 21.28854 20.76497 19.37607 21.24233 20.82017 17.93410 
21.21683 20.77133 17.93410 21.26567 20.74583 17.93410 21.29117 20.79467 17.93410 
21.24233 20.82017 19.37607 21.21683 20.77133 19.37607 21.26567 20.74583 19.37607 
21.29117 20.79467 19.37607 21.27203 20.81754 18.65508 21.21946 20.80103 18.65508 
21.23597 20.74846 18.65508 21.28854 20.76497 18.65508 21.29117 20.79467 18.65508 
21.21683 20.77133 18.65508 21.24233 20.82017 18.65508 21.26567 20.74583 18.65508 
21.29213 20.79102 16.37600 21.24598 20.82113 16.37600 21.21587 20.77498 16.37600 
21.26202 20.74487 16.37600 21.29213 20.79102 17.81797 21.24598 20.82113 17.81797 
21.21587 20.77498 17.81797 21.26202 20.74487 17.81797 21.27529 20.81563 16.37600 
21.22137 20.80429 16.37600 21.23271 20.75037 16.37600 21.28663 20.76171 16.37600 
21.27529 20.81563 17.81797 21.22137 20.80429 17.81797 21.23271 20.75037 17.81797 
21.28663 20.76171 17.81797 21.29213 20.79102 17.09698 21.24598 20.82113 17.09698 
21.21587 20.77498 17.09698 21.26202 20.74487 17.09698 21.28663 20.76171 17.09698 
21.22137 20.80429 17.09698 21.27529 20.81563 17.09698 21.23271 20.75037 17.09698 
CELLS  3   75
24 0 1 2 3 4 5 6 7 8 9 10 11 12 13 14 15 16 17 18 19 20 21 22 23
24 24 25 26 27 28 29 30 31 32 33 34 35 36 37 38 39 40 41 42 43 44 45 46 47
24 48 49 50 51 52 53 54 55 56 57 58 59 60 61 62 63 64 65 66 67 68 69 70 71
CELL_TYPES  3 
33
33
33
CELL_DATA  3 
SCALARS average_vol_activity_bq_m3 double 1 
LOOKUP_TABLE default
87.21667
90.25774
82.80369
SCALARS total_activity_bq double 1 
LOOKUP_TABLE default
0.59971
0.62062
0.56937
SCALARS mc_error double 1 
LOOKUP_TABLE default
0.00000
0.00000
0.00138
SCALARS reynolds double 1 
LOOKUP_TABLE default
177320.90452
467255.36580
600756.89888
SCALARS cumulated_time_s double 1 
LOOKUP_TABLE default
2.52367
1.29736
2.20703
SCALARS res_time_s double 1 
LOOKUP_TABLE default
2.19449
0.48409
0.37652
SCALARS mass_flow_kg_s double 1 
LOOKUP_TABLE default
3.00000
14.00000
18.00000
SCALARS linear_velocity_m_s double 1 
LOOKUP_TABLE default
0.65709
2.97871
3.82977
