# vtk DataFile Version 2.0
DGS printing
ASCII
DATASET UNSTRUCTURED_GRID
POINTS  72  floats
21.25805 19.82175 20.81800 21.29275 19.77895 20.81800 21.24995 19.74425 20.81800 
21.21525 19.78705 20.81800 21.25805 19.82175 19.37603 21.29275 19.77895 19.37603 
21.24995 19.74425 19.37603 21.21525 19.78705 19.37603 21.28426 19.80754 20.81800 
21.27854 19.75274 20.81800 21.22374 19.75846 20.81800 21.22946 19.81326 20.81800 
21.28426 19.80754 19.37603 21.27854 19.75274 19.37603 21.22374 19.75846 19.37603 
21.22946 19.81326 19.37603 21.25805 19.82175 20.09702 21.29275 19.77895 20.09702 
21.24995 19.74425 20.09702 21.21525 19.78705 20.09702 21.22946 19.81326 20.09702 
21.27854 19.75274 20.09702 21.28426 19.80754 20.09702 21.22374 19.75846 20.09702 
21.26781 20.81943 17.93410 21.21757 20.79681 17.93410 21.24019 20.74657 17.93410 
21.29043 20.76919 17.93410 21.26781 20.81943 19.37607 21.21757 20.79681 19.37607 
21.24019 20.74657 19.37607 21.29043 20.76919 19.37607 21.23801 20.81853 17.93410 
21.21847 20.76701 17.93410 21.26999 20.74747 17.93410 21.28953 20.79899 17.93410 
21.23801 20.81853 19.37607 21.21847 20.76701 19.37607 21.26999 20.74747 19.37607 
21.28953 20.79899 19.37607 21.26781 20.81943 18.65508 21.21757 20.79681 18.65508 
21.24019 20.74657 18.65508 21.29043 20.76919 18.65508 21.28953 20.79899 18.65508 
21.21847 20.76701 18.65508 21.23801 20.81853 18.65508 21.26999 20.74747 18.65508 
21.27839 20.81338 16.37600 21.22362 20.80739 16.37600 21.22961 20.75262 16.37600 
21.28438 20.75861 16.37600 21.27839 20.81338 17.81797 21.22362 20.80739 17.81797 
21.22961 20.75262 17.81797 21.28438 20.75861 17.81797 21.24977 20.82173 16.37600 
21.21527 20.77877 16.37600 21.25823 20.74427 16.37600 21.29273 20.78723 16.37600 
21.24977 20.82173 17.81797 21.21527 20.77877 17.81797 21.25823 20.74427 17.81797 
21.29273 20.78723 17.81797 21.27839 20.81338 17.09698 21.22362 20.80739 17.09698 
21.22961 20.75262 17.09698 21.28438 20.75861 17.09698 21.29273 20.78723 17.09698 
21.21527 20.77877 17.09698 21.24977 20.82173 17.09698 21.25823 20.74427 17.09698 
CELLS  3   75
24 0 1 2 3 4 5 6 7 8 9 10 11 12 13 14 15 16 17 18 19 20 21 22 23
24 24 25 26 27 28 29 30 31 32 33 34 35 36 37 38 39 40 41 42 43 44 45 46 47
24 48 49 50 51 52 53 54 55 56 57 58 59 60 61 62 63 64 65 66 67 68 69 70 71
CELL_TYPES  3 
33
33
33
CELL_DATA  3 
SCALARS average_vol_activity_bq_m3 double 1 
LOOKUP_TABLE default
0.00000
0.00000
0.00000
SCALARS total_activity_bq double 1 
LOOKUP_TABLE default
0.00000
0.00000
0.00000
SCALARS mc_error double 1 
LOOKUP_TABLE default
0.00000
0.00000
0.00000
