# vtk DataFile Version 2.0
DGS printing
ASCII
DATASET UNSTRUCTURED_GRID
POINTS  72  floats
21.28313 19.80887 20.81800 21.27987 19.75387 20.81800 21.22487 19.75713 20.81800 
21.22813 19.81213 20.81800 21.28313 19.80887 19.37603 21.27987 19.75387 19.37603 
21.22487 19.75713 19.37603 21.22813 19.81213 19.37603 21.29289 19.78070 20.81800 
21.25170 19.74411 20.81800 21.21511 19.78530 20.81800 21.25630 19.82189 20.81800 
21.29289 19.78070 19.37603 21.25170 19.74411 19.37603 21.21511 19.78530 19.37603 
21.25630 19.82189 19.37603 21.28313 19.80887 20.09702 21.27987 19.75387 20.09702 
21.22487 19.75713 20.09702 21.22813 19.81213 20.09702 21.25630 19.82189 20.09702 
21.25170 19.74411 20.09702 21.29289 19.78070 20.09702 21.21511 19.78530 20.09702 
21.29267 20.78771 17.93410 21.24929 20.82167 17.93410 21.21533 20.77829 17.93410 
21.25871 20.74433 17.93410 21.29267 20.78771 19.37607 21.24929 20.82167 19.37607 
21.21533 20.77829 19.37607 21.25871 20.74433 19.37607 21.27801 20.81368 17.93410 
21.22332 20.80701 17.93410 21.22999 20.75232 17.93410 21.28468 20.75899 17.93410 
21.27801 20.81368 19.37607 21.22332 20.80701 19.37607 21.22999 20.75232 19.37607 
21.28468 20.75899 19.37607 21.29267 20.78771 18.65508 21.24929 20.82167 18.65508 
21.21533 20.77829 18.65508 21.25871 20.74433 18.65508 21.28468 20.75899 18.65508 
21.22332 20.80701 18.65508 21.27801 20.81368 18.65508 21.22999 20.75232 18.65508 
21.29230 20.79014 16.37600 21.24686 20.82130 16.37600 21.21570 20.77586 16.37600 
21.26114 20.74470 16.37600 21.29230 20.79014 17.81797 21.24686 20.82130 17.81797 
21.21570 20.77586 17.81797 21.26114 20.74470 17.81797 21.27603 20.81513 16.37600 
21.22187 20.80503 16.37600 21.23197 20.75087 16.37600 21.28613 20.76097 16.37600 
21.27603 20.81513 17.81797 21.22187 20.80503 17.81797 21.23197 20.75087 17.81797 
21.28613 20.76097 17.81797 21.29230 20.79014 17.09698 21.24686 20.82130 17.09698 
21.21570 20.77586 17.09698 21.26114 20.74470 17.09698 21.28613 20.76097 17.09698 
21.22187 20.80503 17.09698 21.27603 20.81513 17.09698 21.23197 20.75087 17.09698 
CELLS  3   75
24 0 1 2 3 4 5 6 7 8 9 10 11 12 13 14 15 16 17 18 19 20 21 22 23
24 24 25 26 27 28 29 30 31 32 33 34 35 36 37 38 39 40 41 42 43 44 45 46 47
24 48 49 50 51 52 53 54 55 56 57 58 59 60 61 62 63 64 65 66 67 68 69 70 71
CELL_TYPES  3 
33
33
33
CELL_DATA  3 
SCALARS average_vol_activity_bq_m3 double 1 
LOOKUP_TABLE default
87.21667
90.25774
83.08177
SCALARS total_activity_bq double 1 
LOOKUP_TABLE default
0.59971
0.62062
0.57128
SCALARS mc_error double 1 
LOOKUP_TABLE default
0.00000
0.00000
0.00134
