# vtk DataFile Version 2.0
DGS printing
ASCII
DATASET UNSTRUCTURED_GRID
POINTS  72  floats
21.28809 19.80186 20.81800 21.27286 19.74891 20.81800 21.21991 19.76414 20.81800 
21.23514 19.81709 20.81800 21.28809 19.80186 19.37603 21.27286 19.74891 19.37603 
21.21991 19.76414 19.37603 21.23514 19.81709 19.37603 21.29144 19.77223 20.81800 
21.24323 19.74556 20.81800 21.21656 19.79377 20.81800 21.26477 19.82044 20.81800 
21.29144 19.77223 19.37603 21.24323 19.74556 19.37603 21.21656 19.79377 19.37603 
21.26477 19.82044 19.37603 21.28809 19.80186 20.09702 21.27286 19.74891 20.09702 
21.21991 19.76414 20.09702 21.23514 19.81709 20.09702 21.26477 19.82044 20.09702 
21.24323 19.74556 20.09702 21.29144 19.77223 20.09702 21.21656 19.79377 20.09702 
21.27596 20.81518 17.93410 21.22182 20.80496 17.93410 21.23204 20.75082 17.93410 
21.28618 20.76104 17.93410 21.27596 20.81518 19.37607 21.22182 20.80496 19.37607 
21.23204 20.75082 19.37607 21.28618 20.76104 19.37607 21.24677 20.82128 17.93410 
21.21572 20.77577 17.93410 21.26123 20.74472 17.93410 21.29228 20.79023 17.93410 
21.24677 20.82128 19.37607 21.21572 20.77577 19.37607 21.26123 20.74472 19.37607 
21.29228 20.79023 19.37607 21.27596 20.81518 18.65508 21.22182 20.80496 18.65508 
21.23204 20.75082 18.65508 21.28618 20.76104 18.65508 21.29228 20.79023 18.65508 
21.21572 20.77577 18.65508 21.24677 20.82128 18.65508 21.26123 20.74472 18.65508 
21.29187 20.79214 16.37600 21.24486 20.82087 16.37600 21.21613 20.77386 16.37600 
21.26314 20.74513 16.37600 21.29187 20.79214 17.81797 21.24486 20.82087 17.81797 
21.21613 20.77386 17.81797 21.26314 20.74513 17.81797 21.27432 20.81624 16.37600 
21.22076 20.80332 16.37600 21.23368 20.74976 16.37600 21.28724 20.76268 16.37600 
21.27432 20.81624 17.81797 21.22076 20.80332 17.81797 21.23368 20.74976 17.81797 
21.28724 20.76268 17.81797 21.29187 20.79214 17.09698 21.24486 20.82087 17.09698 
21.21613 20.77386 17.09698 21.26314 20.74513 17.09698 21.28724 20.76268 17.09698 
21.22076 20.80332 17.09698 21.27432 20.81624 17.09698 21.23368 20.74976 17.09698 
CELLS  3   75
24 0 1 2 3 4 5 6 7 8 9 10 11 12 13 14 15 16 17 18 19 20 21 22 23
24 24 25 26 27 28 29 30 31 32 33 34 35 36 37 38 39 40 41 42 43 44 45 46 47
24 48 49 50 51 52 53 54 55 56 57 58 59 60 61 62 63 64 65 66 67 68 69 70 71
CELL_TYPES  3 
33
33
33
CELL_DATA  3 
SCALARS average_vol_activity_bq_m3 double 1 
LOOKUP_TABLE default
28.66108
35.31962
0.00000
SCALARS total_activity_bq double 1 
LOOKUP_TABLE default
0.19708
0.24286
0.00000
SCALARS mc_error double 1 
LOOKUP_TABLE default
0.00000
0.00000
0.00000
