# vtk DataFile Version 2.0
DGS printing
ASCII
DATASET UNSTRUCTURED_GRID
POINTS  240  floats
21.29284 20.78600 22.31800 21.25700 20.74416 22.31800 21.21516 20.78000 22.31800 
21.25100 20.82184 22.31800 21.29284 20.78600 21.59701 21.25700 20.74416 21.59701 
21.21516 20.78000 21.59701 21.25100 20.82184 21.59701 21.28359 20.75765 22.31800 
21.22865 20.75341 22.31800 21.22441 20.80835 22.31800 21.27935 20.81259 22.31800 
21.28359 20.75765 21.59701 21.22865 20.75341 21.59701 21.22441 20.80835 21.59701 
21.27935 20.81259 21.59701 21.29284 20.78600 21.95751 21.25700 20.74416 21.95751 
21.21516 20.78000 21.95751 21.25100 20.82184 21.95751 21.27935 20.81259 21.95751 
21.22865 20.75341 21.95751 21.28359 20.75765 21.95751 21.22441 20.80835 21.95751 
21.25889 20.82165 21.59700 21.29265 20.77811 21.59700 21.24911 20.74435 21.59700 
21.21535 20.78789 21.59700 21.25889 20.82165 20.87601 21.29265 20.77811 20.87601 
21.24911 20.74435 20.87601 21.21535 20.78789 20.87601 21.28479 20.80688 21.59700 
21.27788 20.75221 21.59700 21.22321 20.75912 21.59700 21.23012 20.81379 21.59700 
21.28479 20.80688 20.87601 21.27788 20.75221 20.87601 21.22321 20.75912 20.87601 
21.23012 20.81379 20.87601 21.25889 20.82165 21.23651 21.29265 20.77811 21.23651 
21.24911 20.74435 21.23651 21.21535 20.78789 21.23651 21.23012 20.81379 21.23651 
21.27788 20.75221 21.23651 21.28479 20.80688 21.23651 21.22321 20.75912 21.23651 
21.28119 19.81090 20.81800 21.28190 19.75581 20.81800 21.22681 19.75510 20.81800 
21.22610 19.81019 20.81800 21.28119 19.81090 19.37603 21.28190 19.75581 19.37603 
21.22681 19.75510 19.37603 21.22610 19.81019 19.37603 21.29296 19.78350 20.81800 
21.25450 19.74404 20.81800 21.21504 19.78250 20.81800 21.25350 19.82196 20.81800 
21.29296 19.78350 19.37603 21.25450 19.74404 19.37603 21.21504 19.78250 19.37603 
21.25350 19.82196 19.37603 21.28119 19.81090 20.09702 21.28190 19.75581 20.09702 
21.22681 19.75510 20.09702 21.22610 19.81019 20.09702 21.25350 19.82196 20.09702 
21.25450 19.74404 20.09702 21.29296 19.78350 20.09702 21.21504 19.78250 20.09702 
21.29153 20.79345 19.37600 21.24355 20.82053 19.37600 21.21647 20.77255 19.37600 
21.26445 20.74547 19.37600 21.29153 20.79345 20.81797 21.24355 20.82053 20.81797 
21.21647 20.77255 20.81797 21.26445 20.74547 20.81797 21.27315 20.81693 19.37600 
21.22007 20.80215 19.37600 21.23485 20.74907 19.37600 21.28793 20.76385 19.37600 
21.27315 20.81693 20.81797 21.22007 20.80215 20.81797 21.23485 20.74907 20.81797 
21.28793 20.76385 20.81797 21.29153 20.79345 20.09698 21.24355 20.82053 20.09698 
21.21647 20.77255 20.09698 21.26445 20.74547 20.09698 21.28793 20.76385 20.09698 
21.22007 20.80215 20.09698 21.27315 20.81693 20.09698 21.23485 20.74907 20.09698 
21.26651 20.81990 17.93410 21.21710 20.79551 17.93410 21.24149 20.74610 17.93410 
21.29090 20.77049 17.93410 21.26651 20.81990 19.37607 21.21710 20.79551 19.37607 
21.24149 20.74610 19.37607 21.29090 20.77049 19.37607 21.23675 20.81794 17.93410 
21.21906 20.76575 17.93410 21.27125 20.74806 17.93410 21.28894 20.80025 17.93410 
21.23675 20.81794 19.37607 21.21906 20.76575 19.37607 21.27125 20.74806 19.37607 
21.28894 20.80025 19.37607 21.26651 20.81990 18.65508 21.21710 20.79551 18.65508 
21.24149 20.74610 18.65508 21.29090 20.77049 18.65508 21.28894 20.80025 18.65508 
21.21906 20.76575 18.65508 21.23675 20.81794 18.65508 21.27125 20.74806 18.65508 
21.28674 21.80412 19.37600 21.23288 21.81574 19.37600 21.22126 21.76188 19.37600 
21.27512 21.75026 19.37600 21.28674 21.80412 20.81797 21.23288 21.81574 20.81797 
21.22126 21.76188 20.81797 21.27512 21.75026 20.81797 21.26222 21.82108 19.37600 
21.21592 21.79122 19.37600 21.24578 21.74492 19.37600 21.29208 21.77478 19.37600 
21.26222 21.82108 20.81797 21.21592 21.79122 20.81797 21.24578 21.74492 20.81797 
21.29208 21.77478 20.81797 21.28674 21.80412 20.09698 21.23288 21.81574 20.09698 
21.22126 21.76188 20.09698 21.27512 21.75026 20.09698 21.29208 21.77478 20.09698 
21.21592 21.79122 20.09698 21.26222 21.82108 20.09698 21.24578 21.74492 20.09698 
21.27538 22.81557 19.37600 21.22143 22.80438 19.37600 21.23262 22.75043 19.37600 
21.28657 22.76162 19.37600 21.27538 22.81557 20.81797 21.22143 22.80438 20.81797 
21.23262 22.75043 20.81797 21.28657 22.76162 20.81797 21.24609 22.82115 19.37600 
21.21585 22.77509 19.37600 21.26191 22.74485 19.37600 21.29215 22.79091 19.37600 
21.24609 22.82115 20.81797 21.21585 22.77509 20.81797 21.26191 22.74485 20.81797 
21.29215 22.79091 20.81797 21.27538 22.81557 20.09698 21.22143 22.80438 20.09698 
21.23262 22.75043 20.09698 21.28657 22.76162 20.09698 21.29215 22.79091 20.09698 
21.21585 22.77509 20.09698 21.24609 22.82115 20.09698 21.26191 22.74485 20.09698 
21.27765 23.81396 19.37600 21.22304 23.80665 19.37600 21.23035 23.75204 19.37600 
21.28496 23.75935 19.37600 21.27765 23.81396 22.31797 21.22304 23.80665 22.31797 
21.23035 23.75204 22.31797 21.28496 23.75935 22.31797 21.24882 23.82161 19.37600 
21.21539 23.77782 19.37600 21.25918 23.74439 19.37600 21.29261 23.78818 19.37600 
21.24882 23.82161 22.31797 21.21539 23.77782 22.31797 21.25918 23.74439 22.31797 
21.29261 23.78818 22.31797 21.27765 23.81396 20.84698 21.22304 23.80665 20.84698 
21.23035 23.75204 20.84698 21.28496 23.75935 20.84698 21.29261 23.78818 20.84698 
21.21539 23.77782 20.84698 21.24882 23.82161 20.84698 21.25918 23.74439 20.84698 
21.28192 20.81017 16.37600 21.22683 20.81092 16.37600 21.22608 20.75583 16.37600 
21.28117 20.75508 16.37600 21.28192 20.81017 17.81797 21.22683 20.81092 17.81797 
21.22608 20.75583 17.81797 21.28117 20.75508 17.81797 21.25453 20.82196 16.37600 
21.21504 20.78353 16.37600 21.25347 20.74404 16.37600 21.29296 20.78247 16.37600 
21.25453 20.82196 17.81797 21.21504 20.78353 17.81797 21.25347 20.74404 17.81797 
21.29296 20.78247 17.81797 21.28192 20.81017 17.09698 21.22683 20.81092 17.09698 
21.22608 20.75583 17.09698 21.28117 20.75508 17.09698 21.29296 20.78247 17.09698 
21.21504 20.78353 17.09698 21.25453 20.82196 17.09698 21.25347 20.74404 17.09698 
21.28493 23.30669 17.87600 21.23031 23.31393 17.87600 21.22307 23.25931 17.87600 
21.27769 23.25207 17.87600 21.28493 23.30669 19.31797 21.23031 23.31393 19.31797 
21.22307 23.25931 19.31797 21.27769 23.25207 19.31797 21.25912 23.32162 17.87600 
21.21538 23.28812 17.87600 21.24888 23.24438 17.87600 21.29262 23.27788 17.87600 
21.25912 23.32162 19.31797 21.21538 23.28812 19.31797 21.24888 23.24438 19.31797 
21.29262 23.27788 19.31797 21.28493 23.30669 18.59698 21.23031 23.31393 18.59698 
21.22307 23.25931 18.59698 21.27769 23.25207 18.59698 21.29262 23.27788 18.59698 
21.21538 23.28812 18.59698 21.25912 23.32162 18.59698 21.24888 23.24438 18.59698 
CELLS  10   250
24 0 1 2 3 4 5 6 7 8 9 10 11 12 13 14 15 16 17 18 19 20 21 22 23
24 24 25 26 27 28 29 30 31 32 33 34 35 36 37 38 39 40 41 42 43 44 45 46 47
24 48 49 50 51 52 53 54 55 56 57 58 59 60 61 62 63 64 65 66 67 68 69 70 71
24 72 73 74 75 76 77 78 79 80 81 82 83 84 85 86 87 88 89 90 91 92 93 94 95
24 96 97 98 99 100 101 102 103 104 105 106 107 108 109 110 111 112 113 114 115 116 117 118 119
24 120 121 122 123 124 125 126 127 128 129 130 131 132 133 134 135 136 137 138 139 140 141 142 143
24 144 145 146 147 148 149 150 151 152 153 154 155 156 157 158 159 160 161 162 163 164 165 166 167
24 168 169 170 171 172 173 174 175 176 177 178 179 180 181 182 183 184 185 186 187 188 189 190 191
24 192 193 194 195 196 197 198 199 200 201 202 203 204 205 206 207 208 209 210 211 212 213 214 215
24 216 217 218 219 220 221 222 223 224 225 226 227 228 229 230 231 232 233 234 235 236 237 238 239
CELL_TYPES  10 
33
33
33
33
33
33
33
33
33
33
CELL_DATA  10 
SCALARS average_vol_activity_bq_m3 double 1 
LOOKUP_TABLE default
99.20422
97.62953
68.06209
94.60693
90.25774
22.68736
45.37472
561.42083
86.55678
510.78946
SCALARS total_activity_bq double 1 
LOOKUP_TABLE default
0.34107
0.33566
0.46800
0.65053
0.62062
0.15600
0.31200
7.87617
0.59518
3.51225
SCALARS mc_error double 1 
LOOKUP_TABLE default
0.00000
0.00000
0.00000
0.00000
0.00000
0.00000
0.00000
0.00000
0.00000
0.00000
