# vtk DataFile Version 2.0
DGS printing
ASCII
DATASET UNSTRUCTURED_GRID
POINTS  240  floats
21.27851 20.81328 22.31800 21.28428 20.75849 22.31800 21.22949 20.75272 22.31800 
21.22372 20.80751 22.31800 21.27851 20.81328 21.59701 21.28428 20.75849 21.59701 
21.22949 20.75272 21.59701 21.22372 20.80751 21.59701 21.29275 20.78708 22.31800 
21.25808 20.74425 22.31800 21.21525 20.77892 22.31800 21.24992 20.82175 22.31800 
21.29275 20.78708 21.59701 21.25808 20.74425 21.59701 21.21525 20.77892 21.59701 
21.24992 20.82175 21.59701 21.27851 20.81328 21.95751 21.28428 20.75849 21.95751 
21.22949 20.75272 21.95751 21.22372 20.80751 21.95751 21.24992 20.82175 21.95751 
21.25808 20.74425 21.95751 21.29275 20.78708 21.95751 21.21525 20.77892 21.95751 
21.27891 20.81296 21.59700 21.28396 20.75809 21.59700 21.22909 20.75304 21.59700 
21.22404 20.80791 21.59700 21.27891 20.81296 20.87601 21.28396 20.75809 20.87601 
21.22909 20.75304 20.87601 21.22404 20.80791 20.87601 21.29280 20.78657 21.59700 
21.25757 20.74420 21.59700 21.21520 20.77943 21.59700 21.25043 20.82180 21.59700 
21.29280 20.78657 20.87601 21.25757 20.74420 20.87601 21.21520 20.77943 20.87601 
21.25043 20.82180 20.87601 21.27891 20.81296 21.23651 21.28396 20.75809 21.23651 
21.22909 20.75304 21.23651 21.22404 20.80791 21.23651 21.25043 20.82180 21.23651 
21.25757 20.74420 21.23651 21.29280 20.78657 21.23651 21.21520 20.77943 21.23651 
21.28816 19.80174 20.81800 21.27274 19.74884 20.81800 21.21984 19.76426 20.81800 
21.23526 19.81716 20.81800 21.28816 19.80174 19.37603 21.27274 19.74884 19.37603 
21.21984 19.76426 19.37603 21.23526 19.81716 19.37603 21.29140 19.77210 20.81800 
21.24310 19.74560 20.81800 21.21660 19.79390 20.81800 21.26490 19.82040 20.81800 
21.29140 19.77210 19.37603 21.24310 19.74560 19.37603 21.21660 19.79390 19.37603 
21.26490 19.82040 19.37603 21.28816 19.80174 20.09702 21.27274 19.74884 20.09702 
21.21984 19.76426 20.09702 21.23526 19.81716 20.09702 21.26490 19.82040 20.09702 
21.24310 19.74560 20.09702 21.29140 19.77210 20.09702 21.21660 19.79390 20.09702 
21.28268 20.80937 19.37600 21.22763 20.81168 19.37600 21.22532 20.75663 19.37600 
21.28037 20.75432 19.37600 21.28268 20.80937 20.81797 21.22763 20.81168 20.81797 
21.22532 20.75663 20.81797 21.28037 20.75432 20.81797 21.25563 20.82193 19.37600 
21.21507 20.78463 19.37600 21.25237 20.74407 19.37600 21.29293 20.78137 19.37600 
21.25563 20.82193 20.81797 21.21507 20.78463 20.81797 21.25237 20.74407 20.81797 
21.29293 20.78137 20.81797 21.28268 20.80937 20.09698 21.22763 20.81168 20.09698 
21.22532 20.75663 20.09698 21.28037 20.75432 20.09698 21.29293 20.78137 20.09698 
21.21507 20.78463 20.09698 21.25563 20.82193 20.09698 21.25237 20.74407 20.09698 
21.29283 20.78619 17.93410 21.25081 20.82183 17.93410 21.21517 20.77981 17.93410 
21.25719 20.74417 17.93410 21.29283 20.78619 19.37607 21.25081 20.82183 19.37607 
21.21517 20.77981 19.37607 21.25719 20.74417 19.37607 21.27920 20.81271 17.93410 
21.22429 20.80820 17.93410 21.22880 20.75329 17.93410 21.28371 20.75780 17.93410 
21.27920 20.81271 19.37607 21.22429 20.80820 19.37607 21.22880 20.75329 19.37607 
21.28371 20.75780 19.37607 21.29283 20.78619 18.65508 21.25081 20.82183 18.65508 
21.21517 20.77981 18.65508 21.25719 20.74417 18.65508 21.28371 20.75780 18.65508 
21.22429 20.80820 18.65508 21.27920 20.81271 18.65508 21.22880 20.75329 18.65508 
21.29198 21.79169 19.37600 21.24531 21.82098 19.37600 21.21602 21.77431 19.37600 
21.26269 21.74502 19.37600 21.29198 21.79169 20.81797 21.24531 21.82098 20.81797 
21.21602 21.77431 20.81797 21.26269 21.74502 20.81797 21.27471 21.81600 19.37600 
21.22100 21.80371 19.37600 21.23329 21.75000 19.37600 21.28700 21.76229 19.37600 
21.27471 21.81600 20.81797 21.22100 21.80371 20.81797 21.23329 21.75000 20.81797 
21.28700 21.76229 20.81797 21.29198 21.79169 20.09698 21.24531 21.82098 20.09698 
21.21602 21.77431 20.09698 21.26269 21.74502 20.09698 21.28700 21.76229 20.09698 
21.22100 21.80371 20.09698 21.27471 21.81600 20.09698 21.23329 21.75000 20.09698 
21.27610 22.81508 19.37600 21.22192 22.80510 19.37600 21.23190 22.75092 19.37600 
21.28608 22.76090 19.37600 21.27610 22.81508 20.81797 21.22192 22.80510 20.81797 
21.23190 22.75092 20.81797 21.28608 22.76090 20.81797 21.24694 22.82132 19.37600 
21.21568 22.77594 19.37600 21.26106 22.74468 19.37600 21.29232 22.79006 19.37600 
21.24694 22.82132 20.81797 21.21568 22.77594 20.81797 21.26106 22.74468 20.81797 
21.29232 22.79006 20.81797 21.27610 22.81508 20.09698 21.22192 22.80510 20.09698 
21.23190 22.75092 20.09698 21.28608 22.76090 20.09698 21.29232 22.79006 20.09698 
21.21568 22.77594 20.09698 21.24694 22.82132 20.09698 21.26106 22.74468 20.09698 
21.26999 23.81853 19.37600 21.21847 23.79899 19.37600 21.23801 23.74747 19.37600 
21.28953 23.76701 19.37600 21.26999 23.81853 22.31797 21.21847 23.79899 22.31797 
21.23801 23.74747 22.31797 21.28953 23.76701 22.31797 21.24018 23.81943 19.37600 
21.21757 23.76918 19.37600 21.26782 23.74657 19.37600 21.29043 23.79682 19.37600 
21.24018 23.81943 22.31797 21.21757 23.76918 22.31797 21.26782 23.74657 22.31797 
21.29043 23.79682 22.31797 21.26999 23.81853 20.84698 21.21847 23.79899 20.84698 
21.23801 23.74747 20.84698 21.28953 23.76701 20.84698 21.29043 23.79682 20.84698 
21.21757 23.76918 20.84698 21.24018 23.81943 20.84698 21.26782 23.74657 20.84698 
21.28416 20.80766 16.37600 21.22934 20.81316 16.37600 21.22384 20.75834 16.37600 
21.27866 20.75284 16.37600 21.28416 20.80766 17.81797 21.22934 20.81316 17.81797 
21.22384 20.75834 17.81797 21.27866 20.75284 17.81797 21.25789 20.82177 16.37600 
21.21523 20.78689 16.37600 21.25011 20.74423 16.37600 21.29277 20.77911 16.37600 
21.25789 20.82177 17.81797 21.21523 20.78689 17.81797 21.25011 20.74423 17.81797 
21.29277 20.77911 17.81797 21.28416 20.80766 17.09698 21.22934 20.81316 17.09698 
21.22384 20.75834 17.09698 21.27866 20.75284 17.09698 21.29277 20.77911 17.09698 
21.21523 20.78689 17.09698 21.25789 20.82177 17.09698 21.25011 20.74423 17.09698 
21.28129 23.31080 17.87600 21.22620 23.31029 17.87600 21.22671 23.25520 17.87600 
21.28180 23.25571 17.87600 21.28129 23.31080 19.31797 21.22620 23.31029 19.31797 
21.22671 23.25520 19.31797 21.28180 23.25571 19.31797 21.25364 23.32196 17.87600 
21.21504 23.28264 17.87600 21.25436 23.24404 17.87600 21.29296 23.28336 17.87600 
21.25364 23.32196 19.31797 21.21504 23.28264 19.31797 21.25436 23.24404 19.31797 
21.29296 23.28336 19.31797 21.28129 23.31080 18.59698 21.22620 23.31029 18.59698 
21.22671 23.25520 18.59698 21.28180 23.25571 18.59698 21.29296 23.28336 18.59698 
21.21504 23.28264 18.59698 21.25364 23.32196 18.59698 21.25436 23.24404 18.59698 
CELLS  10   250
24 0 1 2 3 4 5 6 7 8 9 10 11 12 13 14 15 16 17 18 19 20 21 22 23
24 24 25 26 27 28 29 30 31 32 33 34 35 36 37 38 39 40 41 42 43 44 45 46 47
24 48 49 50 51 52 53 54 55 56 57 58 59 60 61 62 63 64 65 66 67 68 69 70 71
24 72 73 74 75 76 77 78 79 80 81 82 83 84 85 86 87 88 89 90 91 92 93 94 95
24 96 97 98 99 100 101 102 103 104 105 106 107 108 109 110 111 112 113 114 115 116 117 118 119
24 120 121 122 123 124 125 126 127 128 129 130 131 132 133 134 135 136 137 138 139 140 141 142 143
24 144 145 146 147 148 149 150 151 152 153 154 155 156 157 158 159 160 161 162 163 164 165 166 167
24 168 169 170 171 172 173 174 175 176 177 178 179 180 181 182 183 184 185 186 187 188 189 190 191
24 192 193 194 195 196 197 198 199 200 201 202 203 204 205 206 207 208 209 210 211 212 213 214 215
24 216 217 218 219 220 221 222 223 224 225 226 227 228 229 230 231 232 233 234 235 236 237 238 239
CELL_TYPES  10 
33
33
33
33
33
33
33
33
33
33
CELL_DATA  10 
SCALARS average_vol_activity_bq_m3 double 1 
LOOKUP_TABLE default
99.20422
97.62953
87.21667
94.60693
90.25774
71.53386
82.88287
561.42083
83.03690
437.76955
SCALARS total_activity_bq double 1 
LOOKUP_TABLE default
0.34107
0.33566
0.59971
0.65053
0.62062
0.49188
0.56991
7.87617
0.57097
3.01016
SCALARS mc_error double 1 
LOOKUP_TABLE default
0.00000
0.00000
0.00000
0.00000
0.00000
0.00000
0.00000
0.00000
0.00135
0.00592
SCALARS reynolds double 1 
LOOKUP_TABLE default
1182128.96886
1182128.96886
177320.90452
467255.36580
467255.36580
59106.96817
118213.93635
333753.35502
600756.89888
709283.61809
SCALARS cumulated_time_s double 1 
LOOKUP_TABLE default
0.16459
0.32918
2.52367
0.81327
1.29736
6.91264
3.62091
1.38273
2.17345
2.30086
SCALARS res_time_s double 1 
LOOKUP_TABLE default
0.16459
0.16459
2.19449
0.48409
0.48409
6.58347
3.29173
1.38273
0.37652
0.54862
SCALARS mass_flow_kg_s double 1 
LOOKUP_TABLE default
20.00000
20.00000
3.00000
14.00000
14.00000
1.00000
2.00000
10.00000
18.00000
12.00000
SCALARS linear_velocity_m_s double 1 
LOOKUP_TABLE default
4.38054
4.38054
0.65709
2.97871
2.97871
0.21903
0.43806
2.12765
3.82977
2.62835
