# vtk DataFile Version 2.0
DGS printing
ASCII
DATASET UNSTRUCTURED_GRID
POINTS  144  floats
21.26385 20.90860 20.09624 21.25226 20.90860 20.10435 21.24415 20.90860 20.09276 
21.25574 20.90860 20.08465 21.26385 19.90860 20.09624 21.25226 19.90860 20.10435 
21.24415 19.90860 20.09276 21.25574 19.90860 20.08465 21.25973 20.90860 20.10270 
21.24580 20.90860 20.10023 21.24827 20.90860 20.08630 21.26220 20.90860 20.08877 
21.25973 19.90860 20.10270 21.24580 19.90860 20.10023 21.24827 19.90860 20.08630 
21.26220 19.90860 20.08877 21.26385 20.40860 20.09624 21.25226 20.40860 20.10435 
21.24415 20.40860 20.09276 21.25574 20.40860 20.08465 21.26220 20.40860 20.08877 
21.24580 20.40860 20.10023 21.25973 20.40860 20.10270 21.24827 20.40860 20.08630 
21.27025 21.90860 20.11972 21.22878 21.90860 20.11075 21.23775 21.90860 20.06928 
21.27922 21.90860 20.07825 21.27025 20.90860 20.11972 21.22878 20.90860 20.11075 
21.23775 20.90860 20.06928 21.27922 20.90860 20.07825 21.24766 21.90860 20.12382 
21.22468 21.90860 20.08816 21.26034 21.90860 20.06518 21.28332 21.90860 20.10084 
21.24766 20.90860 20.12382 21.22468 20.90860 20.08816 21.26034 20.90860 20.06518 
21.28332 20.90860 20.10084 21.27025 21.40860 20.11972 21.22878 21.40860 20.11075 
21.23775 21.40860 20.06928 21.27922 21.40860 20.07825 21.28332 21.40860 20.10084 
21.22468 21.40860 20.08816 21.24766 21.40860 20.12382 21.26034 21.40860 20.06518 
21.26073 22.90860 20.14405 21.30355 22.90860 20.08777 21.24727 22.90860 20.04495 
21.20445 22.90860 20.10123 21.26073 23.90860 20.14405 21.30355 23.90860 20.08777 
21.24727 23.90860 20.04495 21.20445 23.90860 20.10123 21.29379 22.90860 20.12478 
21.28428 22.90860 20.05471 21.21421 22.90860 20.06422 21.22372 22.90860 20.13429 
21.29379 23.90860 20.12478 21.28428 23.90860 20.05471 21.21421 23.90860 20.06422 
21.22372 23.90860 20.13429 21.26073 23.40860 20.14405 21.30355 23.40860 20.08777 
21.24727 23.40860 20.04495 21.20445 23.40860 20.10123 21.22372 23.40860 20.13429 
21.28428 23.40860 20.05471 21.29379 23.40860 20.12478 21.21421 23.40860 20.06422 
21.30314 23.90860 20.10372 21.26322 23.90860 20.04536 21.20486 23.90860 20.08528 
21.24478 23.90860 20.14364 21.30314 26.90860 20.10372 21.26322 26.90860 20.04536 
21.20486 26.90860 20.08528 21.24478 26.90860 20.14364 21.29527 23.90860 20.06627 
21.22577 23.90860 20.05323 21.21273 23.90860 20.12273 21.28223 23.90860 20.13577 
21.29527 26.90860 20.06627 21.22577 26.90860 20.05323 21.21273 26.90860 20.12273 
21.28223 26.90860 20.13577 21.30314 25.40860 20.10372 21.26322 25.40860 20.04536 
21.20486 25.40860 20.08528 21.24478 25.40860 20.14364 21.28223 25.40860 20.13577 
21.22577 25.40860 20.05323 21.29527 25.40860 20.06627 21.21273 25.40860 20.12273 
21.27575 27.22820 20.13952 21.29902 27.22820 20.07275 21.23225 27.22820 20.04948 
21.20898 27.22820 20.11625 21.27575 28.22820 20.13952 21.29902 28.22820 20.07275 
21.23225 28.22820 20.04948 21.20898 28.22820 20.11625 21.30121 27.22820 20.11096 
21.27046 27.22820 20.04729 21.20679 27.22820 20.07804 21.23754 27.22820 20.14171 
21.30121 28.22820 20.11096 21.27046 28.22820 20.04729 21.20679 28.22820 20.07804 
21.23754 28.22820 20.14171 21.27575 27.72820 20.13952 21.29902 27.72820 20.07275 
21.23225 27.72820 20.04948 21.20898 27.72820 20.11625 21.23754 27.72820 20.14171 
21.27046 27.72820 20.04729 21.30121 27.72820 20.11096 21.20679 27.72820 20.07804 
21.28969 28.53440 20.12951 21.28901 28.53440 20.05881 21.21831 28.53440 20.05949 
21.21899 28.53440 20.13019 21.28969 29.53440 20.12951 21.28901 29.53440 20.05881 
21.21831 29.53440 20.05949 21.21899 29.53440 20.13019 21.30400 28.53440 20.09402 
21.25352 28.53440 20.04450 21.20400 28.53440 20.09498 21.25448 28.53440 20.14450 
21.30400 29.53440 20.09402 21.25352 29.53440 20.04450 21.20400 29.53440 20.09498 
21.25448 29.53440 20.14450 21.28969 29.03440 20.12951 21.28901 29.03440 20.05881 
21.21831 29.03440 20.05949 21.21899 29.03440 20.13019 21.25448 29.03440 20.14450 
21.25352 29.03440 20.04450 21.30400 29.03440 20.09402 21.20400 29.03440 20.09498 
CELLS  6   150
24 0 1 2 3 4 5 6 7 8 9 10 11 12 13 14 15 16 17 18 19 20 21 22 23
24 24 25 26 27 28 29 30 31 32 33 34 35 36 37 38 39 40 41 42 43 44 45 46 47
24 48 49 50 51 52 53 54 55 56 57 58 59 60 61 62 63 64 65 66 67 68 69 70 71
24 72 73 74 75 76 77 78 79 80 81 82 83 84 85 86 87 88 89 90 91 92 93 94 95
24 96 97 98 99 100 101 102 103 104 105 106 107 108 109 110 111 112 113 114 115 116 117 118 119
24 120 121 122 123 124 125 126 127 128 129 130 131 132 133 134 135 136 137 138 139 140 141 142 143
CELL_TYPES  6 
33
33
33
33
33
33
CELL_DATA  6 
SCALARS average_vol_activity_bq_m3 double 1 
LOOKUP_TABLE default
0.00000
0.00000
0.00000
0.00000
0.00000
0.00000
SCALARS total_activity_bq double 1 
LOOKUP_TABLE default
0.00000
0.00000
0.00000
0.00000
0.00000
0.00000
SCALARS mc_error double 1 
LOOKUP_TABLE default
0.00000
0.00000
0.00000
0.00000
0.00000
0.00000
