# vtk DataFile Version 2.0
DGS printing
ASCII
DATASET UNSTRUCTURED_GRID
POINTS  144  floats
21.26119 20.90860 20.10145 21.24705 20.90860 20.10169 21.24681 20.90860 20.08755 
21.26095 20.90860 20.08731 21.26119 19.90860 20.10145 21.24705 19.90860 20.10169 
21.24681 19.90860 20.08755 21.26095 19.90860 20.08731 21.25416 20.90860 20.10450 
21.24400 20.90860 20.09466 21.25384 20.90860 20.08450 21.26400 20.90860 20.09434 
21.25416 19.90860 20.10450 21.24400 19.90860 20.09466 21.25384 19.90860 20.08450 
21.26400 19.90860 20.09434 21.26119 20.40860 20.10145 21.24705 20.40860 20.10169 
21.24681 20.40860 20.08755 21.26095 20.40860 20.08731 21.26400 20.40860 20.09434 
21.24400 20.40860 20.09466 21.25416 20.40860 20.10450 21.25384 20.40860 20.08450 
21.26624 21.90860 20.12189 21.22661 21.90860 20.10674 21.24176 21.90860 20.06711 
21.28139 21.90860 20.08226 21.26624 20.90860 20.12189 21.22661 20.90860 20.10674 
21.24176 20.90860 20.06711 21.28139 20.90860 20.08226 21.24328 21.90860 20.12252 
21.22598 21.90860 20.08378 21.26472 21.90860 20.06648 21.28202 21.90860 20.10522 
21.24328 20.90860 20.12252 21.22598 20.90860 20.08378 21.26472 20.90860 20.06648 
21.28202 20.90860 20.10522 21.26624 21.40860 20.12189 21.22661 21.40860 20.10674 
21.24176 21.40860 20.06711 21.28139 21.40860 20.08226 21.28202 21.40860 20.10522 
21.22598 21.40860 20.08378 21.24328 21.40860 20.12252 21.26472 21.40860 20.06648 
21.29667 22.90860 20.12055 21.28005 22.90860 20.05183 21.21133 22.90860 20.06845 
21.22795 22.90860 20.13717 21.29667 23.90860 20.12055 21.28005 23.90860 20.05183 
21.21133 23.90860 20.06845 21.22795 23.90860 20.13717 21.30260 22.90860 20.08275 
21.24225 22.90860 20.04590 21.20540 22.90860 20.10625 21.26575 22.90860 20.14310 
21.30260 23.90860 20.08275 21.24225 23.90860 20.04590 21.20540 23.90860 20.10625 
21.26575 23.90860 20.14310 21.29667 23.40860 20.12055 21.28005 23.40860 20.05183 
21.21133 23.40860 20.06845 21.22795 23.40860 20.13717 21.26575 23.40860 20.14310 
21.24225 23.40860 20.04590 21.30260 23.40860 20.08275 21.20540 23.40860 20.10625 
21.25683 23.90860 20.14442 21.30392 23.90860 20.09167 21.25117 23.90860 20.04458 
21.20408 23.90860 20.09733 21.25683 26.90860 20.14442 21.30392 26.90860 20.09167 
21.25117 26.90860 20.04458 21.20408 26.90860 20.09733 21.29130 23.90860 20.12779 
21.28729 23.90860 20.05720 21.21670 23.90860 20.06121 21.22071 23.90860 20.13180 
21.29130 26.90860 20.12779 21.28729 26.90860 20.05720 21.21670 26.90860 20.06121 
21.22071 26.90860 20.13180 21.25683 25.40860 20.14442 21.30392 25.40860 20.09167 
21.25117 25.40860 20.04458 21.20408 25.40860 20.09733 21.22071 25.40860 20.13180 
21.28729 25.40860 20.05720 21.29130 25.40860 20.12779 21.21670 25.40860 20.06121 
21.28874 27.22820 20.13046 21.28996 27.22820 20.05976 21.21926 27.22820 20.05854 
21.21804 27.22820 20.12924 21.28874 28.22820 20.13046 21.28996 28.22820 20.05976 
21.21926 28.22820 20.05854 21.21804 28.22820 20.12924 21.30399 27.22820 20.09536 
21.25486 27.22820 20.04451 21.20401 27.22820 20.09364 21.25314 27.22820 20.14449 
21.30399 28.22820 20.09536 21.25486 28.22820 20.04451 21.20401 28.22820 20.09364 
21.25314 28.22820 20.14449 21.28874 27.72820 20.13046 21.28996 27.72820 20.05976 
21.21926 27.72820 20.05854 21.21804 27.72820 20.12924 21.25314 27.72820 20.14449 
21.25486 27.72820 20.04451 21.30399 27.72820 20.09536 21.20401 27.72820 20.09364 
21.26737 28.53440 20.14268 21.30218 28.53440 20.08113 21.24063 28.53440 20.04632 
21.20582 28.53440 20.10787 21.26737 29.53440 20.14268 21.30218 29.53440 20.08113 
21.24063 29.53440 20.04632 21.20582 29.53440 20.10787 21.29752 28.53440 20.11912 
21.27862 28.53440 20.05098 21.21048 28.53440 20.06988 21.22938 28.53440 20.13802 
21.29752 29.53440 20.11912 21.27862 29.53440 20.05098 21.21048 29.53440 20.06988 
21.22938 29.53440 20.13802 21.26737 29.03440 20.14268 21.30218 29.03440 20.08113 
21.24063 29.03440 20.04632 21.20582 29.03440 20.10787 21.22938 29.03440 20.13802 
21.27862 29.03440 20.05098 21.29752 29.03440 20.11912 21.21048 29.03440 20.06988 
CELLS  6   150
24 0 1 2 3 4 5 6 7 8 9 10 11 12 13 14 15 16 17 18 19 20 21 22 23
24 24 25 26 27 28 29 30 31 32 33 34 35 36 37 38 39 40 41 42 43 44 45 46 47
24 48 49 50 51 52 53 54 55 56 57 58 59 60 61 62 63 64 65 66 67 68 69 70 71
24 72 73 74 75 76 77 78 79 80 81 82 83 84 85 86 87 88 89 90 91 92 93 94 95
24 96 97 98 99 100 101 102 103 104 105 106 107 108 109 110 111 112 113 114 115 116 117 118 119
24 120 121 122 123 124 125 126 127 128 129 130 131 132 133 134 135 136 137 138 139 140 141 142 143
CELL_TYPES  6 
33
33
33
33
33
33
CELL_DATA  6 
SCALARS average_vol_activity_bq_m3 double 1 
LOOKUP_TABLE default
98.49695
84.88244
34.49975
9.08140
1.65591
0.77507
SCALARS total_activity_bq double 1 
LOOKUP_TABLE default
0.03094
0.24000
0.27096
0.21398
0.01301
0.00609
SCALARS mc_error double 1 
LOOKUP_TABLE default
0.00000
0.00000
0.00000
0.00000
0.00000
0.00000
SCALARS reynolds double 1 
LOOKUP_TABLE default
91796.62629
30598.88625
18359.31357
18359.34474
18359.31357
18359.31357
SCALARS cumulated_time_s double 1 
LOOKUP_TABLE default
0.31236
3.12358
15.09729
38.52409
46.33304
54.14198
SCALARS res_time_s double 1 
LOOKUP_TABLE default
0.31236
2.81122
7.80895
23.42680
7.80895
7.80895
SCALARS mass_flow_kg_s double 1 
LOOKUP_TABLE default
1.00000
1.00000
1.00000
1.00000
1.00000
1.00000
SCALARS linear_velocity_m_s double 1 
LOOKUP_TABLE default
3.20146
0.35572
0.12806
0.12806
0.12806
0.12806
