# vtk DataFile Version 2.0
DGS printing
ASCII
DATASET UNSTRUCTURED_GRID
POINTS  48  floats
21.28920 20.79969 22.31800 21.27069 20.74780 22.31800 21.21880 20.76631 22.31800 
21.23731 20.81820 22.31800 21.28920 20.79969 21.59701 21.27069 20.74780 21.59701 
21.21880 20.76631 21.59701 21.23731 20.81820 21.59701 21.29069 20.76991 22.31800 
21.24091 20.74631 22.31800 21.21731 20.79609 22.31800 21.26709 20.81969 22.31800 
21.29069 20.76991 21.59701 21.24091 20.74631 21.59701 21.21731 20.79609 21.59701 
21.26709 20.81969 21.59701 21.28920 20.79969 21.95751 21.27069 20.74780 21.95751 
21.21880 20.76631 21.95751 21.23731 20.81820 21.95751 21.26709 20.81969 21.95751 
21.24091 20.74631 21.95751 21.29069 20.76991 21.95751 21.21731 20.79609 21.95751 
21.29054 20.79651 21.59700 21.26751 20.74646 21.59700 21.21746 20.76949 21.59700 
21.24049 20.81954 21.59700 21.29054 20.79651 20.87601 21.26751 20.74646 20.87601 
21.21746 20.76949 20.87601 21.24049 20.81954 20.87601 21.28939 20.76671 21.59700 
21.23771 20.74761 21.59700 21.21861 20.79929 21.59700 21.27029 20.81839 21.59700 
21.28939 20.76671 20.87601 21.23771 20.74761 20.87601 21.21861 20.79929 20.87601 
21.27029 20.81839 20.87601 21.29054 20.79651 21.23651 21.26751 20.74646 21.23651 
21.21746 20.76949 21.23651 21.24049 20.81954 21.23651 21.27029 20.81839 21.23651 
21.23771 20.74761 21.23651 21.28939 20.76671 21.23651 21.21861 20.79929 21.23651 
CELLS  2   50
24 0 1 2 3 4 5 6 7 8 9 10 11 12 13 14 15 16 17 18 19 20 21 22 23
24 24 25 26 27 28 29 30 31 32 33 34 35 36 37 38 39 40 41 42 43 44 45 46 47
CELL_TYPES  2 
33
33
CELL_DATA  2 
SCALARS average_vol_activity_bq_m3 double 1 
LOOKUP_TABLE default
60.46326
0.00000
SCALARS total_activity_bq double 1 
LOOKUP_TABLE default
0.20788
0.00000
SCALARS mc_error double 1 
LOOKUP_TABLE default
0.00000
0.00000
