# vtk DataFile Version 2.0
DGS printing
ASCII
DATASET UNSTRUCTURED_GRID
POINTS  48  floats
21.25929 20.82160 22.31800 21.29260 20.77771 22.31800 21.24871 20.74440 22.31800 
21.21540 20.78829 22.31800 21.25929 20.82160 21.59701 21.29260 20.77771 21.59701 
21.24871 20.74440 21.59701 21.21540 20.78829 21.59701 21.28504 20.80655 22.31800 
21.27755 20.75196 22.31800 21.22296 20.75945 22.31800 21.23045 20.81404 22.31800 
21.28504 20.80655 21.59701 21.27755 20.75196 21.59701 21.22296 20.75945 21.59701 
21.23045 20.81404 21.59701 21.25929 20.82160 21.95751 21.29260 20.77771 21.95751 
21.24871 20.74440 21.95751 21.21540 20.78829 21.95751 21.23045 20.81404 21.95751 
21.27755 20.75196 21.95751 21.28504 20.80655 21.95751 21.22296 20.75945 21.95751 
21.28152 20.81057 21.59700 21.28157 20.75548 21.59700 21.22648 20.75543 21.59700 
21.22643 20.81052 21.59700 21.28152 20.81057 20.87601 21.28157 20.75548 20.87601 
21.22648 20.75543 20.87601 21.22643 20.81052 20.87601 21.29296 20.78303 21.59700 
21.25403 20.74404 21.59700 21.21504 20.78297 21.59700 21.25397 20.82196 21.59700 
21.29296 20.78303 20.87601 21.25403 20.74404 20.87601 21.21504 20.78297 20.87601 
21.25397 20.82196 20.87601 21.28152 20.81057 21.23651 21.28157 20.75548 21.23651 
21.22648 20.75543 21.23651 21.22643 20.81052 21.23651 21.25397 20.82196 21.23651 
21.25403 20.74404 21.23651 21.29296 20.78303 21.23651 21.21504 20.78297 21.23651 
CELLS  2   50
24 0 1 2 3 4 5 6 7 8 9 10 11 12 13 14 15 16 17 18 19 20 21 22 23
24 24 25 26 27 28 29 30 31 32 33 34 35 36 37 38 39 40 41 42 43 44 45 46 47
CELL_TYPES  2 
33
33
CELL_DATA  2 
SCALARS average_vol_activity_bq_m3 double 1 
LOOKUP_TABLE default
99.20422
97.62953
SCALARS total_activity_bq double 1 
LOOKUP_TABLE default
0.34107
0.33566
SCALARS mc_error double 1 
LOOKUP_TABLE default
0.00000
0.00000
