# vtk DataFile Version 2.0
DGS printing
ASCII
DATASET UNSTRUCTURED_GRID
POINTS  48  floats
21.27311 20.81695 22.31800 21.28795 20.76389 22.31800 21.23489 20.74905 22.31800 
21.22005 20.80211 22.31800 21.27311 20.81695 21.59701 21.28795 20.76389 21.59701 
21.23489 20.74905 21.59701 21.22005 20.80211 21.59701 21.29152 20.79349 22.31800 
21.26449 20.74548 22.31800 21.21648 20.77251 22.31800 21.24351 20.82052 22.31800 
21.29152 20.79349 21.59701 21.26449 20.74548 21.59701 21.21648 20.77251 21.59701 
21.24351 20.82052 21.59701 21.27311 20.81695 21.95751 21.28795 20.76389 21.95751 
21.23489 20.74905 21.95751 21.22005 20.80211 21.95751 21.24351 20.82052 21.95751 
21.26449 20.74548 21.95751 21.29152 20.79349 21.95751 21.21648 20.77251 21.95751 
21.27256 20.81725 21.59700 21.28825 20.76444 21.59700 21.23544 20.74875 21.59700 
21.21975 20.80156 21.59700 21.27256 20.81725 20.87601 21.28825 20.76444 20.87601 
21.23544 20.74875 20.87601 21.21975 20.80156 20.87601 21.29135 20.79410 21.59700 
21.26510 20.74565 21.59700 21.21665 20.77190 21.59700 21.24290 20.82035 21.59700 
21.29135 20.79410 20.87601 21.26510 20.74565 20.87601 21.21665 20.77190 20.87601 
21.24290 20.82035 20.87601 21.27256 20.81725 21.23651 21.28825 20.76444 21.23651 
21.23544 20.74875 21.23651 21.21975 20.80156 21.23651 21.24290 20.82035 21.23651 
21.26510 20.74565 21.23651 21.29135 20.79410 21.23651 21.21665 20.77190 21.23651 
CELLS  2   50
24 0 1 2 3 4 5 6 7 8 9 10 11 12 13 14 15 16 17 18 19 20 21 22 23
24 24 25 26 27 28 29 30 31 32 33 34 35 36 37 38 39 40 41 42 43 44 45 46 47
CELL_TYPES  2 
33
33
CELL_DATA  2 
SCALARS average_vol_activity_bq_m3 double 1 
LOOKUP_TABLE default
99.20422
97.62953
SCALARS total_activity_bq double 1 
LOOKUP_TABLE default
0.34107
0.33566
SCALARS mc_error double 1 
LOOKUP_TABLE default
0.00000
0.00000
