# vtk DataFile Version 2.0
DGS printing
ASCII
DATASET UNSTRUCTURED_GRID
POINTS  48  floats
21.28135 20.81075 22.31800 21.28175 20.75565 22.31800 21.22665 20.75525 22.31800 
21.22625 20.81035 22.31800 21.28135 20.81075 21.59701 21.28175 20.75565 21.59701 
21.22665 20.75525 21.59701 21.22625 20.81035 21.59701 21.29296 20.78329 22.31800 
21.25429 20.74404 22.31800 21.21504 20.78271 22.31800 21.25371 20.82196 22.31800 
21.29296 20.78329 21.59701 21.25429 20.74404 21.59701 21.21504 20.78271 21.59701 
21.25371 20.82196 21.59701 21.28135 20.81075 21.95751 21.28175 20.75565 21.95751 
21.22665 20.75525 21.95751 21.22625 20.81035 21.95751 21.25371 20.82196 21.95751 
21.25429 20.74404 21.95751 21.29296 20.78329 21.95751 21.21504 20.78271 21.95751 
21.26034 20.82144 21.59700 21.29244 20.77666 21.59700 21.24766 20.74456 21.59700 
21.21556 20.78934 21.59700 21.26034 20.82144 20.87601 21.29244 20.77666 20.87601 
21.24766 20.74456 20.87601 21.21556 20.78934 20.87601 21.28566 20.80570 21.59700 
21.27670 20.75134 21.59700 21.22234 20.76030 21.59700 21.23130 20.81466 21.59700 
21.28566 20.80570 20.87601 21.27670 20.75134 20.87601 21.22234 20.76030 20.87601 
21.23130 20.81466 20.87601 21.26034 20.82144 21.23651 21.29244 20.77666 21.23651 
21.24766 20.74456 21.23651 21.21556 20.78934 21.23651 21.23130 20.81466 21.23651 
21.27670 20.75134 21.23651 21.28566 20.80570 21.23651 21.22234 20.76030 21.23651 
CELLS  2   50
24 0 1 2 3 4 5 6 7 8 9 10 11 12 13 14 15 16 17 18 19 20 21 22 23
24 24 25 26 27 28 29 30 31 32 33 34 35 36 37 38 39 40 41 42 43 44 45 46 47
CELL_TYPES  2 
33
33
CELL_DATA  2 
SCALARS average_vol_activity_bq_m3 double 1 
LOOKUP_TABLE default
99.20422
97.62953
SCALARS total_activity_bq double 1 
LOOKUP_TABLE default
0.34107
0.33566
SCALARS mc_error double 1 
LOOKUP_TABLE default
0.00000
0.00000
SCALARS reynolds double 1 
LOOKUP_TABLE default
1182128.96886
1182128.96886
SCALARS cumulated_time_s double 1 
LOOKUP_TABLE default
0.16459
0.32918
SCALARS res_time_s double 1 
LOOKUP_TABLE default
0.16459
0.16459
SCALARS mass_flow_kg_s double 1 
LOOKUP_TABLE default
20.00000
20.00000
SCALARS linear_velocity_m_s double 1 
LOOKUP_TABLE default
4.38054
4.38054
