# vtk DataFile Version 2.0
DGS printing
ASCII
DATASET UNSTRUCTURED_GRID
POINTS  120  floats
21.26167 20.90860 20.10092 21.24758 20.90860 20.10217 21.24633 20.90860 20.08808 
21.26042 20.90860 20.08683 21.26167 19.90860 20.10092 21.24758 19.90860 20.10217 
21.24633 19.90860 20.08808 21.26042 19.90860 20.08683 21.25488 20.90860 20.10446 
21.24404 20.90860 20.09538 21.25312 20.90860 20.08454 21.26396 20.90860 20.09362 
21.25488 19.90860 20.10446 21.24404 19.90860 20.09538 21.25312 19.90860 20.08454 
21.26396 19.90860 20.09362 21.26167 20.40860 20.10092 21.24758 20.40860 20.10217 
21.24633 20.40860 20.08808 21.26042 20.40860 20.08683 21.26396 20.40860 20.09362 
21.24404 20.40860 20.09538 21.25488 20.40860 20.10446 21.25312 20.40860 20.08454 
21.27119 21.90860 20.11908 21.22942 21.90860 20.11169 21.23681 21.90860 20.06992 
21.27858 21.90860 20.07731 21.27119 20.90860 20.11908 21.22942 20.90860 20.11169 
21.23681 20.90860 20.06992 21.27858 20.90860 20.07731 21.24877 21.90860 20.12404 
21.22446 21.90860 20.08927 21.25923 21.90860 20.06496 21.28354 21.90860 20.09973 
21.24877 20.90860 20.12404 21.22446 20.90860 20.08927 21.25923 20.90860 20.06496 
21.28354 20.90860 20.09973 21.27119 21.40860 20.11908 21.22942 21.40860 20.11169 
21.23681 21.40860 20.06992 21.27858 21.40860 20.07731 21.28354 21.40860 20.09973 
21.22446 21.40860 20.08927 21.24877 21.40860 20.12404 21.25923 21.40860 20.06496 
21.25979 22.90860 20.21436 21.13414 22.90860 20.10029 21.24821 22.90860 19.97464 
21.37386 22.90860 20.08871 21.25979 21.90860 20.21436 21.13414 21.90860 20.10029 
21.24821 21.90860 19.97464 21.37386 21.90860 20.08871 21.17334 22.90860 20.18335 
21.16515 22.90860 20.01384 21.33466 22.90860 20.00565 21.34285 22.90860 20.17516 
21.17334 21.90860 20.18335 21.16515 21.90860 20.01384 21.33466 21.90860 20.00565 
21.34285 21.90860 20.17516 21.25979 22.40860 20.21436 21.13414 22.40860 20.10029 
21.24821 22.40860 19.97464 21.37386 22.40860 20.08871 21.34285 22.40860 20.17516 
21.16515 22.40860 20.01384 21.17334 22.40860 20.18335 21.33466 22.40860 20.00565 
21.33864 23.90860 21.09091 20.25759 23.90860 20.17914 21.16936 23.90860 19.09809 
22.25041 23.90860 20.00986 21.33864 22.90860 21.09091 20.25759 22.90860 20.17914 
21.16936 22.90860 19.09809 22.25041 22.90860 20.00986 20.60928 23.90860 20.85892 
20.48958 23.90860 19.44978 21.89872 23.90860 19.33008 22.01842 23.90860 20.73922 
20.60928 22.90860 20.85892 20.48958 22.90860 19.44978 21.89872 22.90860 19.33008 
22.01842 22.90860 20.73922 21.33864 23.40860 21.09091 20.25759 23.40860 20.17914 
21.16936 23.40860 19.09809 22.25041 23.40860 20.00986 22.01842 23.40860 20.73922 
20.48958 23.40860 19.44978 20.60928 23.40860 20.85892 21.89872 23.40860 19.33008 
21.29888 26.90860 20.11654 21.23196 26.90860 20.13938 21.20912 26.90860 20.07246 
21.27604 26.90860 20.04962 21.29888 23.90860 20.11654 21.23196 23.90860 20.13938 
21.20912 23.90860 20.07246 21.27604 23.90860 20.04962 21.27015 26.90860 20.14182 
21.20668 26.90860 20.11065 21.23785 26.90860 20.04718 21.30132 26.90860 20.07835 
21.27015 23.90860 20.14182 21.20668 23.90860 20.11065 21.23785 23.90860 20.04718 
21.30132 23.90860 20.07835 21.29888 25.40860 20.11654 21.23196 25.40860 20.13938 
21.20912 25.40860 20.07246 21.27604 25.40860 20.04962 21.30132 25.40860 20.07835 
21.20668 25.40860 20.11065 21.27015 25.40860 20.14182 21.23785 25.40860 20.04718 
CELLS  5   125
24 0 1 2 3 4 5 6 7 8 9 10 11 12 13 14 15 16 17 18 19 20 21 22 23
24 24 25 26 27 28 29 30 31 32 33 34 35 36 37 38 39 40 41 42 43 44 45 46 47
24 48 49 50 51 52 53 54 55 56 57 58 59 60 61 62 63 64 65 66 67 68 69 70 71
24 72 73 74 75 76 77 78 79 80 81 82 83 84 85 86 87 88 89 90 91 92 93 94 95
24 96 97 98 99 100 101 102 103 104 105 106 107 108 109 110 111 112 113 114 115 116 117 118 119
CELL_TYPES  5 
33
33
33
33
33
CELL_DATA  5 
SCALARS average_vol_activity_bq_m3 double 1 
LOOKUP_TABLE default
98.49695
84.88244
16.66699
0.00307
0.00000
SCALARS total_activity_bq double 1 
LOOKUP_TABLE default
0.03094
0.24000
0.75400
0.00963
0.00000
SCALARS mc_error double 1 
LOOKUP_TABLE default
0.00000
0.00000
0.00000
0.00000
0.00000
SCALARS reynolds double 1 
LOOKUP_TABLE default
91796.62629
30598.88625
7649.71818
917.96626
18359.34474
SCALARS cumulated_time_s double 1 
LOOKUP_TABLE default
0.31236
3.12358
48.10308
3171.67940
3195.10620
SCALARS res_time_s double 1 
LOOKUP_TABLE default
0.31236
2.81122
44.97950
3123.57632
23.42680
SCALARS mass_flow_kg_s double 1 
LOOKUP_TABLE default
1.00000
1.00000
1.00000
1.00000
1.00000
SCALARS linear_velocity_m_s double 1 
LOOKUP_TABLE default
3.20146
0.35572
0.02223
0.00032
0.12806
