# vtk DataFile Version 2.0
DGS printing
ASCII
DATASET UNSTRUCTURED_GRID
POINTS  120  floats
21.26383 20.90860 20.09635 21.25215 20.90860 20.10433 21.24417 20.90860 20.09265 
21.25585 20.90860 20.08467 21.26383 19.90860 20.09635 21.25215 19.90860 20.10433 
21.24417 19.90860 20.09265 21.25585 19.90860 20.08467 21.25964 20.90860 20.10276 
21.24574 20.90860 20.10014 21.24836 20.90860 20.08624 21.26226 20.90860 20.08886 
21.25964 19.90860 20.10276 21.24574 19.90860 20.10014 21.24836 19.90860 20.08624 
21.26226 19.90860 20.08886 21.26383 20.40860 20.09635 21.25215 20.40860 20.10433 
21.24417 20.40860 20.09265 21.25585 20.40860 20.08467 21.26226 20.40860 20.08886 
21.24574 20.40860 20.10014 21.25964 20.40860 20.10276 21.24836 20.40860 20.08624 
21.28373 21.90860 20.09854 21.24996 21.90860 20.12423 21.22427 21.90860 20.09046 
21.25804 21.90860 20.06477 21.28373 20.90860 20.09854 21.24996 20.90860 20.12423 
21.22427 20.90860 20.09046 21.25804 20.90860 20.06477 21.27216 21.90860 20.11838 
21.23012 21.90860 20.11266 21.23584 21.90860 20.07062 21.27788 21.90860 20.07634 
21.27216 20.90860 20.11838 21.23012 20.90860 20.11266 21.23584 20.90860 20.07062 
21.27788 20.90860 20.07634 21.28373 21.40860 20.09854 21.24996 21.40860 20.12423 
21.22427 21.40860 20.09046 21.25804 21.40860 20.06477 21.27788 21.40860 20.07634 
21.23012 21.40860 20.11266 21.27216 21.40860 20.11838 21.23584 21.40860 20.07062 
21.32961 22.90860 20.18769 21.16081 22.90860 20.17011 21.17839 22.90860 20.00131 
21.34719 22.90860 20.01889 21.32961 21.90860 20.18769 21.16081 21.90860 20.17011 
21.17839 21.90860 20.00131 21.34719 21.90860 20.01889 21.24157 22.90860 20.21385 
21.13465 22.90860 20.08207 21.26643 22.90860 19.97515 21.37335 22.90860 20.10693 
21.24157 21.90860 20.21385 21.13465 21.90860 20.08207 21.26643 21.90860 19.97515 
21.37335 21.90860 20.10693 21.32961 22.40860 20.18769 21.16081 22.40860 20.17011 
21.17839 22.40860 20.00131 21.34719 22.40860 20.01889 21.37335 22.40860 20.10693 
21.13465 22.40860 20.08207 21.24157 22.40860 20.21385 21.26643 22.40860 19.97515 
22.01395 23.90860 20.74448 20.60402 23.90860 20.85445 20.49405 23.90860 19.44452 
21.90398 23.90860 19.33455 22.01395 22.90860 20.74448 20.60402 22.90860 20.85445 
20.49405 22.90860 19.44452 21.90398 22.90860 19.33455 21.33176 23.90860 21.09147 
20.25703 23.90860 20.17226 21.17624 23.90860 19.09753 22.25097 23.90860 20.01674 
21.33176 22.90860 21.09147 20.25703 22.90860 20.17226 21.17624 22.90860 19.09753 
22.25097 22.90860 20.01674 22.01395 23.40860 20.74448 20.60402 23.40860 20.85445 
20.49405 23.40860 19.44452 21.90398 23.40860 19.33455 22.25097 23.40860 20.01674 
20.25703 23.40860 20.17226 21.33176 23.40860 21.09147 21.17624 23.40860 19.09753 
21.30111 26.90860 20.11126 21.23724 26.90860 20.14161 21.20689 26.90860 20.07774 
21.27076 26.90860 20.04739 21.30111 23.90860 20.11126 21.23724 23.90860 20.14161 
21.20689 23.90860 20.07774 21.27076 23.90860 20.04739 21.27546 26.90860 20.13966 
21.20884 26.90860 20.11596 21.23254 26.90860 20.04934 21.29916 26.90860 20.07304 
21.27546 23.90860 20.13966 21.20884 23.90860 20.11596 21.23254 23.90860 20.04934 
21.29916 23.90860 20.07304 21.30111 25.40860 20.11126 21.23724 25.40860 20.14161 
21.20689 25.40860 20.07774 21.27076 25.40860 20.04739 21.29916 25.40860 20.07304 
21.20884 25.40860 20.11596 21.27546 25.40860 20.13966 21.23254 25.40860 20.04934 
CELLS  5   125
24 0 1 2 3 4 5 6 7 8 9 10 11 12 13 14 15 16 17 18 19 20 21 22 23
24 24 25 26 27 28 29 30 31 32 33 34 35 36 37 38 39 40 41 42 43 44 45 46 47
24 48 49 50 51 52 53 54 55 56 57 58 59 60 61 62 63 64 65 66 67 68 69 70 71
24 72 73 74 75 76 77 78 79 80 81 82 83 84 85 86 87 88 89 90 91 92 93 94 95
24 96 97 98 99 100 101 102 103 104 105 106 107 108 109 110 111 112 113 114 115 116 117 118 119
CELL_TYPES  5 
33
33
33
33
33
CELL_DATA  5 
SCALARS average_vol_activity_bq_m3 double 1 
LOOKUP_TABLE default
98.49695
22.95329
0.00000
0.00000
0.00000
SCALARS total_activity_bq double 1 
LOOKUP_TABLE default
0.03094
0.06490
0.00000
0.00000
0.00000
SCALARS mc_error double 1 
LOOKUP_TABLE default
0.00000
0.00000
0.00000
0.00000
0.00000
