# vtk DataFile Version 2.0
DGS printing
ASCII
DATASET UNSTRUCTURED_GRID
POINTS  48  floats
21.28225 21.80983 19.37600 21.22717 21.81125 19.37600 21.22575 21.75617 19.37600 
21.28083 21.75475 19.37600 21.28225 21.80983 20.81797 21.22717 21.81125 20.81797 
21.22575 21.75617 20.81797 21.28083 21.75475 20.81797 21.25500 21.82195 19.37600 
21.21505 21.78400 19.37600 21.25300 21.74405 19.37600 21.29295 21.78200 19.37600 
21.25500 21.82195 20.81797 21.21505 21.78400 20.81797 21.25300 21.74405 20.81797 
21.29295 21.78200 20.81797 21.28225 21.80983 20.09698 21.22717 21.81125 20.09698 
21.22575 21.75617 20.09698 21.28083 21.75475 20.09698 21.29295 21.78200 20.09698 
21.21505 21.78400 20.09698 21.25500 21.82195 20.09698 21.25300 21.74405 20.09698 
21.29165 22.79301 19.37600 21.24399 22.82065 19.37600 21.21635 22.77299 19.37600 
21.26401 22.74535 19.37600 21.29165 22.79301 20.81797 21.24399 22.82065 20.81797 
21.21635 22.77299 20.81797 21.26401 22.74535 20.81797 21.27355 22.81670 19.37600 
21.22030 22.80255 19.37600 21.23445 22.74930 19.37600 21.28770 22.76345 19.37600 
21.27355 22.81670 20.81797 21.22030 22.80255 20.81797 21.23445 22.74930 20.81797 
21.28770 22.76345 20.81797 21.29165 22.79301 20.09698 21.24399 22.82065 20.09698 
21.21635 22.77299 20.09698 21.26401 22.74535 20.09698 21.28770 22.76345 20.09698 
21.22030 22.80255 20.09698 21.27355 22.81670 20.09698 21.23445 22.74930 20.09698 
CELLS  2   50
24 0 1 2 3 4 5 6 7 8 9 10 11 12 13 14 15 16 17 18 19 20 21 22 23
24 24 25 26 27 28 29 30 31 32 33 34 35 36 37 38 39 40 41 42 43 44 45 46 47
CELL_TYPES  2 
33
33
CELL_DATA  2 
SCALARS average_vol_activity_bq_m3 double 1 
LOOKUP_TABLE default
71.53386
82.88287
SCALARS total_activity_bq double 1 
LOOKUP_TABLE default
0.49188
0.56991
SCALARS mc_error double 1 
LOOKUP_TABLE default
0.00000
0.00000
SCALARS reynolds double 1 
LOOKUP_TABLE default
59106.96817
118213.93635
SCALARS cumulated_time_s double 1 
LOOKUP_TABLE default
6.91264
3.62091
SCALARS res_time_s double 1 
LOOKUP_TABLE default
6.58347
3.29173
SCALARS mass_flow_kg_s double 1 
LOOKUP_TABLE default
1.00000
2.00000
SCALARS linear_velocity_m_s double 1 
LOOKUP_TABLE default
0.21903
0.43806
