# vtk DataFile Version 2.0
DGS printing
ASCII
DATASET UNSTRUCTURED_GRID
POINTS  48  floats
21.28572 21.80562 19.37600 21.23138 21.81472 19.37600 21.22228 21.76038 19.37600 
21.27662 21.75128 19.37600 21.28572 21.80562 20.81797 21.23138 21.81472 20.81797 
21.22228 21.76038 20.81797 21.27662 21.75128 20.81797 21.26043 21.82142 19.37600 
21.21558 21.78943 19.37600 21.24757 21.74458 19.37600 21.29242 21.77657 19.37600 
21.26043 21.82142 20.81797 21.21558 21.78943 20.81797 21.24757 21.74458 20.81797 
21.29242 21.77657 20.81797 21.28572 21.80562 20.09698 21.23138 21.81472 20.09698 
21.22228 21.76038 20.09698 21.27662 21.75128 20.09698 21.29242 21.77657 20.09698 
21.21558 21.78943 20.09698 21.26043 21.82142 20.09698 21.24757 21.74458 20.09698 
21.26763 22.81950 19.37600 21.21750 22.79663 19.37600 21.24037 22.74650 19.37600 
21.29050 22.76937 19.37600 21.26763 22.81950 20.81797 21.21750 22.79663 20.81797 
21.24037 22.74650 20.81797 21.29050 22.76937 20.81797 21.23783 22.81844 19.37600 
21.21856 22.76683 19.37600 21.27017 22.74756 19.37600 21.28944 22.79917 19.37600 
21.23783 22.81844 20.81797 21.21856 22.76683 20.81797 21.27017 22.74756 20.81797 
21.28944 22.79917 20.81797 21.26763 22.81950 20.09698 21.21750 22.79663 20.09698 
21.24037 22.74650 20.09698 21.29050 22.76937 20.09698 21.28944 22.79917 20.09698 
21.21856 22.76683 20.09698 21.23783 22.81844 20.09698 21.27017 22.74756 20.09698 
CELLS  2   50
24 0 1 2 3 4 5 6 7 8 9 10 11 12 13 14 15 16 17 18 19 20 21 22 23
24 24 25 26 27 28 29 30 31 32 33 34 35 36 37 38 39 40 41 42 43 44 45 46 47
CELL_TYPES  2 
33
33
CELL_DATA  2 
SCALARS average_vol_activity_bq_m3 double 1 
LOOKUP_TABLE default
71.53386
82.88287
SCALARS total_activity_bq double 1 
LOOKUP_TABLE default
0.49188
0.56991
SCALARS mc_error double 1 
LOOKUP_TABLE default
0.00000
0.00000
