# vtk DataFile Version 2.0
DGS printing
ASCII
DATASET UNSTRUCTURED_GRID
POINTS  48  floats
21.27524 21.81566 19.37600 21.22134 21.80424 19.37600 21.23276 21.75034 19.37600 
21.28666 21.76176 19.37600 21.27524 21.81566 20.81797 21.22134 21.80424 20.81797 
21.23276 21.75034 20.81797 21.28666 21.76176 20.81797 21.24593 21.82111 19.37600 
21.21589 21.77493 19.37600 21.26207 21.74489 19.37600 21.29211 21.79107 19.37600 
21.24593 21.82111 20.81797 21.21589 21.77493 20.81797 21.26207 21.74489 20.81797 
21.29211 21.79107 20.81797 21.27524 21.81566 20.09698 21.22134 21.80424 20.09698 
21.23276 21.75034 20.09698 21.28666 21.76176 20.09698 21.29211 21.79107 20.09698 
21.21589 21.77493 20.09698 21.24593 21.82111 20.09698 21.26207 21.74489 20.09698 
21.27499 22.81582 19.37600 21.22118 22.80399 19.37600 21.23301 22.75018 19.37600 
21.28682 22.76201 19.37600 21.27499 22.81582 20.81797 21.22118 22.80399 20.81797 
21.23301 22.75018 20.81797 21.28682 22.76201 20.81797 21.24563 22.82105 19.37600 
21.21595 22.77463 19.37600 21.26237 22.74495 19.37600 21.29205 22.79137 19.37600 
21.24563 22.82105 20.81797 21.21595 22.77463 20.81797 21.26237 22.74495 20.81797 
21.29205 22.79137 20.81797 21.27499 22.81582 20.09698 21.22118 22.80399 20.09698 
21.23301 22.75018 20.09698 21.28682 22.76201 20.09698 21.29205 22.79137 20.09698 
21.21595 22.77463 20.09698 21.24563 22.82105 20.09698 21.26237 22.74495 20.09698 
CELLS  2   50
24 0 1 2 3 4 5 6 7 8 9 10 11 12 13 14 15 16 17 18 19 20 21 22 23
24 24 25 26 27 28 29 30 31 32 33 34 35 36 37 38 39 40 41 42 43 44 45 46 47
CELL_TYPES  2 
33
33
CELL_DATA  2 
SCALARS average_vol_activity_bq_m3 double 1 
LOOKUP_TABLE default
9.55369
19.10739
SCALARS total_activity_bq double 1 
LOOKUP_TABLE default
0.06569
0.13138
SCALARS mc_error double 1 
LOOKUP_TABLE default
0.00000
0.00000
