# vtk DataFile Version 2.0
DGS printing
ASCII
DATASET UNSTRUCTURED_GRID
POINTS  48  floats
21.27445 21.81616 19.37600 21.22084 21.80345 19.37600 21.23355 21.74984 19.37600 
21.28716 21.76255 19.37600 21.27445 21.81616 20.81797 21.22084 21.80345 20.81797 
21.23355 21.74984 20.81797 21.28716 21.76255 20.81797 21.24501 21.82091 19.37600 
21.21609 21.77401 19.37600 21.26299 21.74509 19.37600 21.29191 21.79199 19.37600 
21.24501 21.82091 20.81797 21.21609 21.77401 20.81797 21.26299 21.74509 20.81797 
21.29191 21.79199 20.81797 21.27445 21.81616 20.09698 21.22084 21.80345 20.09698 
21.23355 21.74984 20.09698 21.28716 21.76255 20.09698 21.29191 21.79199 20.09698 
21.21609 21.77401 20.09698 21.24501 21.82091 20.09698 21.26299 21.74509 20.09698 
21.26565 22.82018 19.37600 21.21682 22.79465 19.37600 21.24235 22.74582 19.37600 
21.29118 22.77135 19.37600 21.26565 22.82018 20.81797 21.21682 22.79465 20.81797 
21.24235 22.74582 20.81797 21.29118 22.77135 20.81797 21.23595 22.81752 19.37600 
21.21948 22.76495 19.37600 21.27205 22.74848 19.37600 21.28852 22.80105 19.37600 
21.23595 22.81752 20.81797 21.21948 22.76495 20.81797 21.27205 22.74848 20.81797 
21.28852 22.80105 20.81797 21.26565 22.82018 20.09698 21.21682 22.79465 20.09698 
21.24235 22.74582 20.09698 21.29118 22.77135 20.09698 21.28852 22.80105 20.09698 
21.21948 22.76495 20.09698 21.23595 22.81752 20.09698 21.27205 22.74848 20.09698 
CELLS  2   50
24 0 1 2 3 4 5 6 7 8 9 10 11 12 13 14 15 16 17 18 19 20 21 22 23
24 24 25 26 27 28 29 30 31 32 33 34 35 36 37 38 39 40 41 42 43 44 45 46 47
CELL_TYPES  2 
33
33
CELL_DATA  2 
SCALARS average_vol_activity_bq_m3 double 1 
LOOKUP_TABLE default
22.68736
45.37472
SCALARS total_activity_bq double 1 
LOOKUP_TABLE default
0.15600
0.31200
SCALARS mc_error double 1 
LOOKUP_TABLE default
0.00000
0.00000
