# vtk DataFile Version 2.0
DGS printing
ASCII
DATASET UNSTRUCTURED_GRID
POINTS  48  floats
21.27938 21.81256 19.37600 21.22444 21.80838 19.37600 21.22862 21.75344 19.37600 
21.28356 21.75762 19.37600 21.27938 21.81256 20.81797 21.22444 21.80838 20.81797 
21.22862 21.75344 20.81797 21.28356 21.75762 20.81797 21.25104 21.82185 19.37600 
21.21515 21.78004 19.37600 21.25696 21.74415 19.37600 21.29285 21.78596 19.37600 
21.25104 21.82185 20.81797 21.21515 21.78004 20.81797 21.25696 21.74415 20.81797 
21.29285 21.78596 20.81797 21.27938 21.81256 20.09698 21.22444 21.80838 20.09698 
21.22862 21.75344 20.09698 21.28356 21.75762 20.09698 21.29285 21.78596 20.09698 
21.21515 21.78004 20.09698 21.25104 21.82185 20.09698 21.25696 21.74415 20.09698 
21.25992 22.82151 19.37600 21.21549 22.78892 19.37600 21.24808 22.74449 19.37600 
21.29251 22.77708 19.37600 21.25992 22.82151 20.81797 21.21549 22.78892 20.81797 
21.24808 22.74449 20.81797 21.29251 22.77708 20.81797 21.23096 22.81441 19.37600 
21.22259 22.75996 19.37600 21.27704 22.75159 19.37600 21.28541 22.80604 19.37600 
21.23096 22.81441 20.81797 21.22259 22.75996 20.81797 21.27704 22.75159 20.81797 
21.28541 22.80604 20.81797 21.25992 22.82151 20.09698 21.21549 22.78892 20.09698 
21.24808 22.74449 20.09698 21.29251 22.77708 20.09698 21.28541 22.80604 20.09698 
21.22259 22.75996 20.09698 21.23096 22.81441 20.09698 21.27704 22.75159 20.09698 
CELLS  2   50
24 0 1 2 3 4 5 6 7 8 9 10 11 12 13 14 15 16 17 18 19 20 21 22 23
24 24 25 26 27 28 29 30 31 32 33 34 35 36 37 38 39 40 41 42 43 44 45 46 47
CELL_TYPES  2 
33
33
CELL_DATA  2 
SCALARS average_vol_activity_bq_m3 double 1 
LOOKUP_TABLE default
0.00000
0.00000
SCALARS total_activity_bq double 1 
LOOKUP_TABLE default
0.00000
0.00000
SCALARS mc_error double 1 
LOOKUP_TABLE default
0.00000
0.00000
