# vtk DataFile Version 2.0
DGS printing
ASCII
DATASET UNSTRUCTURED_GRID
POINTS  24  floats
21.29279 20.78667 19.37600 21.25033 20.82179 19.37600 21.21521 20.77933 19.37600 
21.25767 20.74421 19.37600 21.29279 20.78667 20.81797 21.25033 20.82179 20.81797 
21.21521 20.77933 20.81797 21.25767 20.74421 20.81797 21.27883 20.81302 19.37600 
21.22398 20.80783 19.37600 21.22917 20.75298 19.37600 21.28402 20.75817 19.37600 
21.27883 20.81302 20.81797 21.22398 20.80783 20.81797 21.22917 20.75298 20.81797 
21.28402 20.75817 20.81797 21.29279 20.78667 20.09698 21.25033 20.82179 20.09698 
21.21521 20.77933 20.09698 21.25767 20.74421 20.09698 21.28402 20.75817 20.09698 
21.22398 20.80783 20.09698 21.27883 20.81302 20.09698 21.22917 20.75298 20.09698 
CELLS  1   25
24 0 1 2 3 4 5 6 7 8 9 10 11 12 13 14 15 16 17 18 19 20 21 22 23
CELL_TYPES  1 
33
CELL_DATA  1 
SCALARS average_vol_activity_bq_m3 double 1 
LOOKUP_TABLE default
94.60693
SCALARS total_activity_bq double 1 
LOOKUP_TABLE default
0.65053
SCALARS mc_error double 1 
LOOKUP_TABLE default
0.00000
