# vtk DataFile Version 2.0
DGS printing
ASCII
DATASET UNSTRUCTURED_GRID
POINTS  24  floats
21.26850 20.81916 19.37600 21.21784 20.79750 19.37600 21.23950 20.74684 19.37600 
21.29016 20.76850 19.37600 21.26850 20.81916 20.81797 21.21784 20.79750 20.81797 
21.23950 20.74684 20.81797 21.29016 20.76850 20.81797 21.23869 20.81882 19.37600 
21.21818 20.76769 19.37600 21.26931 20.74718 19.37600 21.28982 20.79831 19.37600 
21.23869 20.81882 20.81797 21.21818 20.76769 20.81797 21.26931 20.74718 20.81797 
21.28982 20.79831 20.81797 21.26850 20.81916 20.09698 21.21784 20.79750 20.09698 
21.23950 20.74684 20.09698 21.29016 20.76850 20.09698 21.28982 20.79831 20.09698 
21.21818 20.76769 20.09698 21.23869 20.81882 20.09698 21.26931 20.74718 20.09698 
CELLS  1   25
24 0 1 2 3 4 5 6 7 8 9 10 11 12 13 14 15 16 17 18 19 20 21 22 23
CELL_TYPES  1 
33
CELL_DATA  1 
SCALARS average_vol_activity_bq_m3 double 1 
LOOKUP_TABLE default
94.60693
SCALARS total_activity_bq double 1 
LOOKUP_TABLE default
0.65053
SCALARS mc_error double 1 
LOOKUP_TABLE default
0.00000
SCALARS reynolds double 1 
LOOKUP_TABLE default
467255.36580
SCALARS cumulated_time_s double 1 
LOOKUP_TABLE default
0.81327
SCALARS res_time_s double 1 
LOOKUP_TABLE default
0.48409
SCALARS mass_flow_kg_s double 1 
LOOKUP_TABLE default
14.00000
SCALARS linear_velocity_m_s double 1 
LOOKUP_TABLE default
2.97871
