# vtk DataFile Version 2.0
DGS printing
ASCII
DATASET UNSTRUCTURED_GRID
POINTS  24  floats
21.29190 20.79202 19.37600 21.24498 20.82090 19.37600 21.21610 20.77398 19.37600 
21.26302 20.74510 19.37600 21.29190 20.79202 20.81797 21.24498 20.82090 20.81797 
21.21610 20.77398 20.81797 21.26302 20.74510 20.81797 21.27442 20.81618 19.37600 
21.22082 20.80342 19.37600 21.23358 20.74982 19.37600 21.28718 20.76258 19.37600 
21.27442 20.81618 20.81797 21.22082 20.80342 20.81797 21.23358 20.74982 20.81797 
21.28718 20.76258 20.81797 21.29190 20.79202 20.09698 21.24498 20.82090 20.09698 
21.21610 20.77398 20.09698 21.26302 20.74510 20.09698 21.28718 20.76258 20.09698 
21.22082 20.80342 20.09698 21.27442 20.81618 20.09698 21.23358 20.74982 20.09698 
CELLS  1   25
24 0 1 2 3 4 5 6 7 8 9 10 11 12 13 14 15 16 17 18 19 20 21 22 23
CELL_TYPES  1 
33
CELL_DATA  1 
SCALARS average_vol_activity_bq_m3 double 1 
LOOKUP_TABLE default
94.60693
SCALARS total_activity_bq double 1 
LOOKUP_TABLE default
0.65053
SCALARS mc_error double 1 
LOOKUP_TABLE default
0.00000
