# vtk DataFile Version 2.0
DGS printing
ASCII
DATASET UNSTRUCTURED_GRID
POINTS  24  floats
21.29099 20.79523 19.37600 21.24177 20.81999 19.37600 21.21701 20.77077 19.37600 
21.26623 20.74601 19.37600 21.29099 20.79523 20.81797 21.24177 20.81999 20.81797 
21.21701 20.77077 20.81797 21.26623 20.74601 20.81797 21.27151 20.81781 19.37600 
21.21919 20.80051 19.37600 21.23649 20.74819 19.37600 21.28881 20.76549 19.37600 
21.27151 20.81781 20.81797 21.21919 20.80051 20.81797 21.23649 20.74819 20.81797 
21.28881 20.76549 20.81797 21.29099 20.79523 20.09698 21.24177 20.81999 20.09698 
21.21701 20.77077 20.09698 21.26623 20.74601 20.09698 21.28881 20.76549 20.09698 
21.21919 20.80051 20.09698 21.27151 20.81781 20.09698 21.23649 20.74819 20.09698 
CELLS  1   25
24 0 1 2 3 4 5 6 7 8 9 10 11 12 13 14 15 16 17 18 19 20 21 22 23
CELL_TYPES  1 
33
CELL_DATA  1 
SCALARS average_vol_activity_bq_m3 double 1 
LOOKUP_TABLE default
0.00000
SCALARS total_activity_bq double 1 
LOOKUP_TABLE default
0.00000
SCALARS mc_error double 1 
LOOKUP_TABLE default
0.00000
