# vtk DataFile Version 2.0
DGS printing
ASCII
DATASET UNSTRUCTURED_GRID
POINTS  240  floats
21.25687 20.82185 22.31800 21.29285 20.78013 22.31800 21.25113 20.74415 22.31800 
21.21515 20.78587 22.31800 21.25687 20.82185 21.59701 21.29285 20.78013 21.59701 
21.25113 20.74415 21.59701 21.21515 20.78587 21.59701 21.28350 20.80845 22.31800 
21.27945 20.75350 22.31800 21.22450 20.75755 22.31800 21.22855 20.81250 22.31800 
21.28350 20.80845 21.59701 21.27945 20.75350 21.59701 21.22450 20.75755 21.59701 
21.22855 20.81250 21.59701 21.25687 20.82185 21.95751 21.29285 20.78013 21.95751 
21.25113 20.74415 21.95751 21.21515 20.78587 21.95751 21.22855 20.81250 21.95751 
21.27945 20.75350 21.95751 21.28350 20.80845 21.95751 21.22450 20.75755 21.95751 
21.26252 20.82102 21.59700 21.29202 20.77448 21.59700 21.24548 20.74498 21.59700 
21.21598 20.79152 21.59700 21.26252 20.82102 20.87601 21.29202 20.77448 20.87601 
21.24548 20.74498 20.87601 21.21598 20.79152 20.87601 21.28691 20.80386 21.59700 
21.27486 20.75009 21.59700 21.22109 20.76214 21.59700 21.23314 20.81591 21.59700 
21.28691 20.80386 20.87601 21.27486 20.75009 20.87601 21.22109 20.76214 20.87601 
21.23314 20.81591 20.87601 21.26252 20.82102 21.23651 21.29202 20.77448 21.23651 
21.24548 20.74498 21.23651 21.21598 20.79152 21.23651 21.23314 20.81591 21.23651 
21.27486 20.75009 21.23651 21.28691 20.80386 21.23651 21.22109 20.76214 21.23651 
21.29286 19.78584 20.81800 21.25684 19.74414 20.81800 21.21514 19.78016 20.81800 
21.25116 19.82186 20.81800 21.29286 19.78584 19.37603 21.25684 19.74414 19.37603 
21.21514 19.78016 19.37603 21.25116 19.82186 19.37603 21.28349 19.75754 20.81800 
21.22854 19.75351 20.81800 21.22451 19.80846 20.81800 21.27946 19.81249 20.81800 
21.28349 19.75754 19.37603 21.22854 19.75351 19.37603 21.22451 19.80846 19.37603 
21.27946 19.81249 19.37603 21.29286 19.78584 20.09702 21.25684 19.74414 20.09702 
21.21514 19.78016 20.09702 21.25116 19.82186 20.09702 21.27946 19.81249 20.09702 
21.22854 19.75351 20.09702 21.28349 19.75754 20.09702 21.22451 19.80846 20.09702 
21.29293 20.78451 19.37600 21.25249 20.82193 19.37600 21.21507 20.78149 19.37600 
21.25551 20.74407 19.37600 21.29293 20.78451 20.81797 21.25249 20.82193 20.81797 
21.21507 20.78149 20.81797 21.25551 20.74407 20.81797 21.28046 20.81160 19.37600 
21.22540 20.80946 19.37600 21.22754 20.75440 19.37600 21.28260 20.75654 19.37600 
21.28046 20.81160 20.81797 21.22540 20.80946 20.81797 21.22754 20.75440 20.81797 
21.28260 20.75654 20.81797 21.29293 20.78451 20.09698 21.25249 20.82193 20.09698 
21.21507 20.78149 20.09698 21.25551 20.74407 20.09698 21.28260 20.75654 20.09698 
21.22540 20.80946 20.09698 21.28046 20.81160 20.09698 21.22754 20.75440 20.09698 
21.28423 20.80758 17.93410 21.22942 20.81323 17.93410 21.22377 20.75842 17.93410 
21.27858 20.75277 17.93410 21.28423 20.80758 19.37607 21.22942 20.81323 19.37607 
21.22377 20.75842 19.37607 21.27858 20.75277 19.37607 21.25800 20.82175 17.93410 
21.21525 20.78700 17.93410 21.25000 20.74425 17.93410 21.29275 20.77900 17.93410 
21.25800 20.82175 19.37607 21.21525 20.78700 19.37607 21.25000 20.74425 19.37607 
21.29275 20.77900 19.37607 21.28423 20.80758 18.65508 21.22942 20.81323 18.65508 
21.22377 20.75842 18.65508 21.27858 20.75277 18.65508 21.29275 20.77900 18.65508 
21.21525 20.78700 18.65508 21.25800 20.82175 18.65508 21.25000 20.74425 18.65508 
21.27250 21.81729 19.37600 21.21971 21.80150 19.37600 21.23550 21.74871 19.37600 
21.28829 21.76450 19.37600 21.27250 21.81729 20.81797 21.21971 21.80150 20.81797 
21.23550 21.74871 20.81797 21.28829 21.76450 20.81797 21.24284 21.82033 19.37600 
21.21667 21.77184 19.37600 21.26516 21.74567 19.37600 21.29133 21.79416 19.37600 
21.24284 21.82033 20.81797 21.21667 21.77184 20.81797 21.26516 21.74567 20.81797 
21.29133 21.79416 20.81797 21.27250 21.81729 20.09698 21.21971 21.80150 20.09698 
21.23550 21.74871 20.09698 21.28829 21.76450 20.09698 21.29133 21.79416 20.09698 
21.21667 21.77184 20.09698 21.24284 21.82033 20.09698 21.26516 21.74567 20.09698 
21.28507 22.80651 19.37600 21.23049 22.81407 19.37600 21.22293 22.75949 19.37600 
21.27751 22.75193 19.37600 21.28507 22.80651 20.81797 21.23049 22.81407 20.81797 
21.22293 22.75949 20.81797 21.27751 22.75193 20.81797 21.25935 22.82159 19.37600 
21.21541 22.78835 19.37600 21.24865 22.74441 19.37600 21.29259 22.77765 19.37600 
21.25935 22.82159 20.81797 21.21541 22.78835 20.81797 21.24865 22.74441 20.81797 
21.29259 22.77765 20.81797 21.28507 22.80651 20.09698 21.23049 22.81407 20.09698 
21.22293 22.75949 20.09698 21.27751 22.75193 20.09698 21.29259 22.77765 20.09698 
21.21541 22.78835 20.09698 21.25935 22.82159 20.09698 21.24865 22.74441 20.09698 
21.26867 23.81909 19.37600 21.21791 23.79767 19.37600 21.23933 23.74691 19.37600 
21.29009 23.76833 19.37600 21.26867 23.81909 22.31797 21.21791 23.79767 22.31797 
21.23933 23.74691 22.31797 21.29009 23.76833 22.31797 21.23886 23.81890 19.37600 
21.21810 23.76786 19.37600 21.26914 23.74710 19.37600 21.28990 23.79814 19.37600 
21.23886 23.81890 22.31797 21.21810 23.76786 22.31797 21.26914 23.74710 22.31797 
21.28990 23.79814 22.31797 21.26867 23.81909 20.84698 21.21791 23.79767 20.84698 
21.23933 23.74691 20.84698 21.29009 23.76833 20.84698 21.28990 23.79814 20.84698 
21.21810 23.76786 20.84698 21.23886 23.81890 20.84698 21.26914 23.74710 20.84698 
21.26808 20.81933 16.37600 21.21767 20.79708 16.37600 21.23992 20.74667 16.37600 
21.29033 20.76892 16.37600 21.26808 20.81933 17.81797 21.21767 20.79708 17.81797 
21.23992 20.74667 17.81797 21.29033 20.76892 17.81797 21.23827 20.81864 16.37600 
21.21836 20.76727 16.37600 21.26973 20.74736 16.37600 21.28964 20.79873 16.37600 
21.23827 20.81864 17.81797 21.21836 20.76727 17.81797 21.26973 20.74736 17.81797 
21.28964 20.79873 17.81797 21.26808 20.81933 17.09698 21.21767 20.79708 17.09698 
21.23992 20.74667 17.09698 21.29033 20.76892 17.09698 21.28964 20.79873 17.09698 
21.21836 20.76727 17.09698 21.23827 20.81864 17.09698 21.26973 20.74736 17.09698 
21.29135 23.29409 17.87600 21.24291 23.32035 17.87600 21.21665 23.27191 17.87600 
21.26509 23.24565 17.87600 21.29135 23.29409 19.31797 21.24291 23.32035 19.31797 
21.21665 23.27191 19.31797 21.26509 23.24565 19.31797 21.27257 23.31725 17.87600 
21.21975 23.30157 17.87600 21.23543 23.24875 17.87600 21.28825 23.26443 17.87600 
21.27257 23.31725 19.31797 21.21975 23.30157 19.31797 21.23543 23.24875 19.31797 
21.28825 23.26443 19.31797 21.29135 23.29409 18.59698 21.24291 23.32035 18.59698 
21.21665 23.27191 18.59698 21.26509 23.24565 18.59698 21.28825 23.26443 18.59698 
21.21975 23.30157 18.59698 21.27257 23.31725 18.59698 21.23543 23.24875 18.59698 
CELLS  10   250
24 0 1 2 3 4 5 6 7 8 9 10 11 12 13 14 15 16 17 18 19 20 21 22 23
24 24 25 26 27 28 29 30 31 32 33 34 35 36 37 38 39 40 41 42 43 44 45 46 47
24 48 49 50 51 52 53 54 55 56 57 58 59 60 61 62 63 64 65 66 67 68 69 70 71
24 72 73 74 75 76 77 78 79 80 81 82 83 84 85 86 87 88 89 90 91 92 93 94 95
24 96 97 98 99 100 101 102 103 104 105 106 107 108 109 110 111 112 113 114 115 116 117 118 119
24 120 121 122 123 124 125 126 127 128 129 130 131 132 133 134 135 136 137 138 139 140 141 142 143
24 144 145 146 147 148 149 150 151 152 153 154 155 156 157 158 159 160 161 162 163 164 165 166 167
24 168 169 170 171 172 173 174 175 176 177 178 179 180 181 182 183 184 185 186 187 188 189 190 191
24 192 193 194 195 196 197 198 199 200 201 202 203 204 205 206 207 208 209 210 211 212 213 214 215
24 216 217 218 219 220 221 222 223 224 225 226 227 228 229 230 231 232 233 234 235 236 237 238 239
CELL_TYPES  10 
33
33
33
33
33
33
33
33
33
33
CELL_DATA  10 
SCALARS average_vol_activity_bq_m3 double 1 
LOOKUP_TABLE default
12.30776
94.06481
155.88479
169.09361
161.32019
127.85446
148.13887
561.42083
148.17168
450.02181
SCALARS total_activity_bq double 1 
LOOKUP_TABLE default
0.04232
0.32340
1.07188
1.16271
1.10926
0.87914
1.01862
7.87617
1.01885
3.09441
SCALARS mc_error double 1 
LOOKUP_TABLE default
0.00000
0.00000
0.00000
0.00000
0.00000
0.00000
0.00000
0.00000
0.00137
0.00498
SCALARS reynolds double 1 
LOOKUP_TABLE default
1182128.96886
1182128.96886
177320.90452
467255.36580
467255.36580
59106.96817
118213.93635
333753.35502
600756.89888
709283.61809
SCALARS cumulated_time_s double 1 
LOOKUP_TABLE default
0.16459
0.32918
2.52367
0.81327
1.29736
6.91264
3.62091
1.38273
2.19335
2.28155
SCALARS res_time_s double 1 
LOOKUP_TABLE default
0.16459
0.16459
2.19449
0.48409
0.48409
6.58347
3.29173
1.38273
0.37652
0.54862
SCALARS mass_flow_kg_s double 1 
LOOKUP_TABLE default
20.00000
20.00000
3.00000
14.00000
14.00000
1.00000
2.00000
10.00000
18.00000
12.00000
SCALARS linear_velocity_m_s double 1 
LOOKUP_TABLE default
4.38054
4.38054
0.65709
2.97871
2.97871
0.21903
0.43806
2.12765
3.82977
2.62835
