# vtk DataFile Version 2.0
DGS printing
ASCII
DATASET UNSTRUCTURED_GRID
POINTS  240  floats
21.27108 20.81802 22.31800 21.28902 20.76592 22.31800 21.23692 20.74798 22.31800 
21.21898 20.80008 22.31800 21.27108 20.81802 21.59701 21.28902 20.76592 21.59701 
21.23692 20.74798 21.59701 21.21898 20.80008 21.59701 21.29084 20.79568 22.31800 
21.26668 20.74616 22.31800 21.21716 20.77032 22.31800 21.24132 20.81984 22.31800 
21.29084 20.79568 21.59701 21.26668 20.74616 21.59701 21.21716 20.77032 21.59701 
21.24132 20.81984 21.59701 21.27108 20.81802 21.95751 21.28902 20.76592 21.95751 
21.23692 20.74798 21.95751 21.21898 20.80008 21.95751 21.24132 20.81984 21.95751 
21.26668 20.74616 21.95751 21.29084 20.79568 21.95751 21.21716 20.77032 21.95751 
21.28153 20.81057 21.59700 21.28157 20.75547 21.59700 21.22647 20.75543 21.59700 
21.22643 20.81053 21.59700 21.28153 20.81057 20.87601 21.28157 20.75547 20.87601 
21.22647 20.75543 20.87601 21.22643 20.81053 20.87601 21.29296 20.78302 21.59700 
21.25402 20.74404 21.59700 21.21504 20.78298 21.59700 21.25398 20.82196 21.59700 
21.29296 20.78302 20.87601 21.25402 20.74404 20.87601 21.21504 20.78298 20.87601 
21.25398 20.82196 20.87601 21.28153 20.81057 21.23651 21.28157 20.75547 21.23651 
21.22647 20.75543 21.23651 21.22643 20.81053 21.23651 21.25398 20.82196 21.23651 
21.25402 20.74404 21.23651 21.29296 20.78302 21.23651 21.21504 20.78298 21.23651 
21.27337 19.81680 20.81800 21.28780 19.76363 20.81800 21.23463 19.74920 20.81800 
21.22020 19.80237 20.81800 21.27337 19.81680 19.37603 21.28780 19.76363 19.37603 
21.23463 19.74920 19.37603 21.22020 19.80237 19.37603 21.29160 19.79321 20.81800 
21.26421 19.74540 20.81800 21.21640 19.77279 20.81800 21.24379 19.82060 20.81800 
21.29160 19.79321 19.37603 21.26421 19.74540 19.37603 21.21640 19.77279 19.37603 
21.24379 19.82060 19.37603 21.27337 19.81680 20.09702 21.28780 19.76363 20.09702 
21.23463 19.74920 20.09702 21.22020 19.80237 20.09702 21.24379 19.82060 20.09702 
21.26421 19.74540 20.09702 21.29160 19.79321 20.09702 21.21640 19.77279 20.09702 
21.28920 20.79969 19.37600 21.23731 20.81820 19.37600 21.21880 20.76631 19.37600 
21.27069 20.74780 19.37600 21.28920 20.79969 20.81797 21.23731 20.81820 20.81797 
21.21880 20.76631 20.81797 21.27069 20.74780 20.81797 21.26709 20.81970 19.37600 
21.21730 20.79609 19.37600 21.24091 20.74630 19.37600 21.29070 20.76991 19.37600 
21.26709 20.81970 20.81797 21.21730 20.79609 20.81797 21.24091 20.74630 20.81797 
21.29070 20.76991 20.81797 21.28920 20.79969 20.09698 21.23731 20.81820 20.09698 
21.21880 20.76631 20.09698 21.27069 20.74780 20.09698 21.29070 20.76991 20.09698 
21.21730 20.79609 20.09698 21.26709 20.81970 20.09698 21.24091 20.74630 20.09698 
21.28850 20.80109 17.93410 21.23591 20.81750 17.93410 21.21950 20.76491 17.93410 
21.27209 20.74850 17.93410 21.28850 20.80109 19.37607 21.23591 20.81750 19.37607 
21.21950 20.76491 19.37607 21.27209 20.74850 19.37607 21.26561 20.82019 17.93410 
21.21681 20.79461 17.93410 21.24239 20.74581 17.93410 21.29119 20.77139 17.93410 
21.26561 20.82019 19.37607 21.21681 20.79461 19.37607 21.24239 20.74581 19.37607 
21.29119 20.77139 19.37607 21.28850 20.80109 18.65508 21.23591 20.81750 18.65508 
21.21950 20.76491 18.65508 21.27209 20.74850 18.65508 21.29119 20.77139 18.65508 
21.21681 20.79461 18.65508 21.26561 20.82019 18.65508 21.24239 20.74581 18.65508 
21.26267 21.82098 19.37600 21.21602 21.79167 19.37600 21.24533 21.74502 19.37600 
21.29198 21.77433 19.37600 21.26267 21.82098 20.81797 21.21602 21.79167 20.81797 
21.24533 21.74502 20.81797 21.29198 21.77433 20.81797 21.23327 21.81599 19.37600 
21.22101 21.76227 19.37600 21.27473 21.75001 19.37600 21.28699 21.80373 19.37600 
21.23327 21.81599 20.81797 21.22101 21.76227 20.81797 21.27473 21.75001 20.81797 
21.28699 21.80373 20.81797 21.26267 21.82098 20.09698 21.21602 21.79167 20.09698 
21.24533 21.74502 20.09698 21.29198 21.77433 20.09698 21.28699 21.80373 20.09698 
21.22101 21.76227 20.09698 21.23327 21.81599 20.09698 21.27473 21.75001 20.09698 
21.26876 22.81905 19.37600 21.21795 22.79776 19.37600 21.23924 22.74695 19.37600 
21.29005 22.76824 19.37600 21.26876 22.81905 20.81797 21.21795 22.79776 20.81797 
21.23924 22.74695 20.81797 21.29005 22.76824 20.81797 21.23895 22.81893 19.37600 
21.21807 22.76795 19.37600 21.26905 22.74707 19.37600 21.28993 22.79805 19.37600 
21.23895 22.81893 20.81797 21.21807 22.76795 20.81797 21.26905 22.74707 20.81797 
21.28993 22.79805 20.81797 21.26876 22.81905 20.09698 21.21795 22.79776 20.09698 
21.23924 22.74695 20.09698 21.29005 22.76824 20.09698 21.28993 22.79805 20.09698 
21.21807 22.76795 20.09698 21.23895 22.81893 20.09698 21.26905 22.74707 20.09698 
21.27875 23.81309 19.37600 21.22391 23.80775 19.37600 21.22925 23.75291 19.37600 
21.28409 23.75825 19.37600 21.27875 23.81309 22.31797 21.22391 23.80775 22.31797 
21.22925 23.75291 22.31797 21.28409 23.75825 22.31797 21.25023 23.82178 19.37600 
21.21522 23.77923 19.37600 21.25777 23.74422 19.37600 21.29278 23.78677 19.37600 
21.25023 23.82178 22.31797 21.21522 23.77923 22.31797 21.25777 23.74422 22.31797 
21.29278 23.78677 22.31797 21.27875 23.81309 20.84698 21.22391 23.80775 20.84698 
21.22925 23.75291 20.84698 21.28409 23.75825 20.84698 21.29278 23.78677 20.84698 
21.21522 23.77923 20.84698 21.25023 23.82178 20.84698 21.25777 23.74422 20.84698 
21.29218 20.79078 16.37600 21.24622 20.82118 16.37600 21.21582 20.77522 16.37600 
21.26178 20.74482 16.37600 21.29218 20.79078 17.81797 21.24622 20.82118 17.81797 
21.21582 20.77522 17.81797 21.26178 20.74482 17.81797 21.27549 20.81550 16.37600 
21.22150 20.80449 16.37600 21.23251 20.75050 16.37600 21.28650 20.76151 16.37600 
21.27549 20.81550 17.81797 21.22150 20.80449 17.81797 21.23251 20.75050 17.81797 
21.28650 20.76151 17.81797 21.29218 20.79078 17.09698 21.24622 20.82118 17.09698 
21.21582 20.77522 17.09698 21.26178 20.74482 17.09698 21.28650 20.76151 17.09698 
21.22150 20.80449 17.09698 21.27549 20.81550 17.09698 21.23251 20.75050 17.09698 
21.27807 23.31363 17.87600 21.22337 23.30707 17.87600 21.22993 23.25237 17.87600 
21.28463 23.25893 17.87600 21.27807 23.31363 19.31797 21.22337 23.30707 19.31797 
21.22993 23.25237 19.31797 21.28463 23.25893 19.31797 21.24936 23.32168 17.87600 
21.21532 23.27836 17.87600 21.25864 23.24432 17.87600 21.29268 23.28764 17.87600 
21.24936 23.32168 19.31797 21.21532 23.27836 19.31797 21.25864 23.24432 19.31797 
21.29268 23.28764 19.31797 21.27807 23.31363 18.59698 21.22337 23.30707 18.59698 
21.22993 23.25237 18.59698 21.28463 23.25893 18.59698 21.29268 23.28764 18.59698 
21.21532 23.27836 18.59698 21.24936 23.32168 18.59698 21.25864 23.24432 18.59698 
CELLS  10   250
24 0 1 2 3 4 5 6 7 8 9 10 11 12 13 14 15 16 17 18 19 20 21 22 23
24 24 25 26 27 28 29 30 31 32 33 34 35 36 37 38 39 40 41 42 43 44 45 46 47
24 48 49 50 51 52 53 54 55 56 57 58 59 60 61 62 63 64 65 66 67 68 69 70 71
24 72 73 74 75 76 77 78 79 80 81 82 83 84 85 86 87 88 89 90 91 92 93 94 95
24 96 97 98 99 100 101 102 103 104 105 106 107 108 109 110 111 112 113 114 115 116 117 118 119
24 120 121 122 123 124 125 126 127 128 129 130 131 132 133 134 135 136 137 138 139 140 141 142 143
24 144 145 146 147 148 149 150 151 152 153 154 155 156 157 158 159 160 161 162 163 164 165 166 167
24 168 169 170 171 172 173 174 175 176 177 178 179 180 181 182 183 184 185 186 187 188 189 190 191
24 192 193 194 195 196 197 198 199 200 201 202 203 204 205 206 207 208 209 210 211 212 213 214 215
24 216 217 218 219 220 221 222 223 224 225 226 227 228 229 230 231 232 233 234 235 236 237 238 239
CELL_TYPES  10 
33
33
33
33
33
33
33
33
33
33
CELL_DATA  10 
SCALARS average_vol_activity_bq_m3 double 1 
LOOKUP_TABLE default
12.30769
94.07202
155.84132
169.13512
161.35979
127.85633
148.12073
561.42083
148.04630
450.83308
SCALARS total_activity_bq double 1 
LOOKUP_TABLE default
0.04232
0.32343
1.07159
1.16300
1.10953
0.87916
1.01850
7.87617
1.01799
3.09999
SCALARS mc_error double 1 
LOOKUP_TABLE default
0.00001
0.00006
0.00024
0.00011
0.00011
0.00037
0.00029
0.00000
0.00228
0.01138
