# vtk DataFile Version 2.0
DGS printing
ASCII
DATASET UNSTRUCTURED_GRID
POINTS  240  floats
21.25881 20.82166 22.31800 21.29266 20.77819 22.31800 21.24919 20.74434 22.31800 
21.21534 20.78781 22.31800 21.25881 20.82166 21.59701 21.29266 20.77819 21.59701 
21.24919 20.74434 21.59701 21.21534 20.78781 21.59701 21.28474 20.80693 22.31800 
21.27793 20.75226 22.31800 21.22326 20.75907 22.31800 21.23007 20.81374 22.31800 
21.28474 20.80693 21.59701 21.27793 20.75226 21.59701 21.22326 20.75907 21.59701 
21.23007 20.81374 21.59701 21.25881 20.82166 21.95751 21.29266 20.77819 21.95751 
21.24919 20.74434 21.95751 21.21534 20.78781 21.95751 21.23007 20.81374 21.95751 
21.27793 20.75226 21.95751 21.28474 20.80693 21.95751 21.22326 20.75907 21.95751 
21.26798 20.81937 21.59700 21.29037 20.76902 21.59700 21.24002 20.74663 21.59700 
21.21763 20.79698 21.59700 21.26798 20.81937 20.87601 21.29037 20.76902 20.87601 
21.24002 20.74663 20.87601 21.21763 20.79698 20.87601 21.28960 20.79883 21.59700 
21.26983 20.74740 21.59700 21.21840 20.76717 21.59700 21.23817 20.81860 21.59700 
21.28960 20.79883 20.87601 21.26983 20.74740 20.87601 21.21840 20.76717 20.87601 
21.23817 20.81860 20.87601 21.26798 20.81937 21.23651 21.29037 20.76902 21.23651 
21.24002 20.74663 21.23651 21.21763 20.79698 21.23651 21.23817 20.81860 21.23651 
21.26983 20.74740 21.23651 21.28960 20.79883 21.23651 21.21840 20.76717 21.23651 
21.26544 19.82024 20.81800 21.29124 19.77156 20.81800 21.24256 19.74576 20.81800 
21.21676 19.79444 20.81800 21.26544 19.82024 19.37603 21.29124 19.77156 19.37603 
21.24256 19.74576 19.37603 21.21676 19.79444 19.37603 21.28842 19.80125 20.81800 
21.27225 19.74858 20.81800 21.21958 19.76475 20.81800 21.23575 19.81742 20.81800 
21.28842 19.80125 19.37603 21.27225 19.74858 19.37603 21.21958 19.76475 19.37603 
21.23575 19.81742 19.37603 21.26544 19.82024 20.09702 21.29124 19.77156 20.09702 
21.24256 19.74576 20.09702 21.21676 19.79444 20.09702 21.23575 19.81742 20.09702 
21.27225 19.74858 20.09702 21.28842 19.80125 20.09702 21.21958 19.76475 20.09702 
21.28996 20.79799 19.37600 21.23901 20.81896 19.37600 21.21804 20.76801 19.37600 
21.26899 20.74704 19.37600 21.28996 20.79799 20.81797 21.23901 20.81896 20.81797 
21.21804 20.76801 20.81797 21.26899 20.74704 20.81797 21.26883 20.81903 19.37600 
21.21797 20.79783 19.37600 21.23917 20.74697 19.37600 21.29003 20.76817 19.37600 
21.26883 20.81903 20.81797 21.21797 20.79783 20.81797 21.23917 20.74697 20.81797 
21.29003 20.76817 20.81797 21.28996 20.79799 20.09698 21.23901 20.81896 20.09698 
21.21804 20.76801 20.09698 21.26899 20.74704 20.09698 21.29003 20.76817 20.09698 
21.21797 20.79783 20.09698 21.26883 20.81903 20.09698 21.23917 20.74697 20.09698 
21.27714 20.81434 17.93410 21.22266 20.80614 17.93410 21.23086 20.75166 17.93410 
21.28534 20.75986 17.93410 21.27714 20.81434 19.37607 21.22266 20.80614 19.37607 
21.23086 20.75166 19.37607 21.28534 20.75986 19.37607 21.24820 20.82153 17.93410 
21.21547 20.77720 17.93410 21.25980 20.74447 17.93410 21.29253 20.78880 17.93410 
21.24820 20.82153 19.37607 21.21547 20.77720 19.37607 21.25980 20.74447 19.37607 
21.29253 20.78880 19.37607 21.27714 20.81434 18.65508 21.22266 20.80614 18.65508 
21.23086 20.75166 18.65508 21.28534 20.75986 18.65508 21.29253 20.78880 18.65508 
21.21547 20.77720 18.65508 21.24820 20.82153 18.65508 21.25980 20.74447 18.65508 
21.26891 21.81899 19.37600 21.21801 21.79791 19.37600 21.23909 21.74701 19.37600 
21.28999 21.76809 19.37600 21.26891 21.81899 20.81797 21.21801 21.79791 20.81797 
21.23909 21.74701 20.81797 21.28999 21.76809 20.81797 21.23909 21.81899 19.37600 
21.21801 21.76809 19.37600 21.26891 21.74701 19.37600 21.28999 21.79791 19.37600 
21.23909 21.81899 20.81797 21.21801 21.76809 20.81797 21.26891 21.74701 20.81797 
21.28999 21.79791 20.81797 21.26891 21.81899 20.09698 21.21801 21.79791 20.09698 
21.23909 21.74701 20.09698 21.28999 21.76809 20.09698 21.28999 21.79791 20.09698 
21.21801 21.76809 20.09698 21.23909 21.81899 20.09698 21.26891 21.74701 20.09698 
21.29259 22.78834 19.37600 21.24866 22.82159 19.37600 21.21541 22.77766 19.37600 
21.25934 22.74441 19.37600 21.29259 22.78834 20.81797 21.24866 22.82159 20.81797 
21.21541 22.77766 20.81797 21.25934 22.74441 20.81797 21.27751 22.81407 19.37600 
21.22293 22.80651 19.37600 21.23049 22.75193 19.37600 21.28507 22.75949 19.37600 
21.27751 22.81407 20.81797 21.22293 22.80651 20.81797 21.23049 22.75193 20.81797 
21.28507 22.75949 20.81797 21.29259 22.78834 20.09698 21.24866 22.82159 20.09698 
21.21541 22.77766 20.09698 21.25934 22.74441 20.09698 21.28507 22.75949 20.09698 
21.22293 22.80651 20.09698 21.27751 22.81407 20.09698 21.23049 22.75193 20.09698 
21.27843 23.81335 19.37600 21.22365 23.80743 19.37600 21.22957 23.75265 19.37600 
21.28435 23.75857 19.37600 21.27843 23.81335 22.31797 21.22365 23.80743 22.31797 
21.22957 23.75265 22.31797 21.28435 23.75857 22.31797 21.24981 23.82173 19.37600 
21.21527 23.77881 19.37600 21.25819 23.74427 19.37600 21.29273 23.78719 19.37600 
21.24981 23.82173 22.31797 21.21527 23.77881 22.31797 21.25819 23.74427 22.31797 
21.29273 23.78719 22.31797 21.27843 23.81335 20.84698 21.22365 23.80743 20.84698 
21.22957 23.75265 20.84698 21.28435 23.75857 20.84698 21.29273 23.78719 20.84698 
21.21527 23.77881 20.84698 21.24981 23.82173 20.84698 21.25819 23.74427 20.84698 
21.28181 20.81029 16.37600 21.22671 20.81081 16.37600 21.22619 20.75571 16.37600 
21.28129 20.75519 16.37600 21.28181 20.81029 17.81797 21.22671 20.81081 17.81797 
21.22619 20.75571 17.81797 21.28129 20.75519 17.81797 21.25437 20.82196 16.37600 
21.21504 20.78337 16.37600 21.25363 20.74404 16.37600 21.29296 20.78263 16.37600 
21.25437 20.82196 17.81797 21.21504 20.78337 17.81797 21.25363 20.74404 17.81797 
21.29296 20.78263 17.81797 21.28181 20.81029 17.09698 21.22671 20.81081 17.09698 
21.22619 20.75571 17.09698 21.28129 20.75519 17.09698 21.29296 20.78263 17.09698 
21.21504 20.78337 17.09698 21.25437 20.82196 17.09698 21.25363 20.74404 17.09698 
21.28816 23.30174 17.87600 21.23526 23.31716 17.87600 21.21984 23.26426 17.87600 
21.27274 23.24884 17.87600 21.28816 23.30174 19.31797 21.23526 23.31716 19.31797 
21.21984 23.26426 19.31797 21.27274 23.24884 19.31797 21.26490 23.32040 17.87600 
21.21660 23.29390 17.87600 21.24310 23.24560 17.87600 21.29140 23.27210 17.87600 
21.26490 23.32040 19.31797 21.21660 23.29390 19.31797 21.24310 23.24560 19.31797 
21.29140 23.27210 19.31797 21.28816 23.30174 18.59698 21.23526 23.31716 18.59698 
21.21984 23.26426 18.59698 21.27274 23.24884 18.59698 21.29140 23.27210 18.59698 
21.21660 23.29390 18.59698 21.26490 23.32040 18.59698 21.24310 23.24560 18.59698 
CELLS  10   250
24 0 1 2 3 4 5 6 7 8 9 10 11 12 13 14 15 16 17 18 19 20 21 22 23
24 24 25 26 27 28 29 30 31 32 33 34 35 36 37 38 39 40 41 42 43 44 45 46 47
24 48 49 50 51 52 53 54 55 56 57 58 59 60 61 62 63 64 65 66 67 68 69 70 71
24 72 73 74 75 76 77 78 79 80 81 82 83 84 85 86 87 88 89 90 91 92 93 94 95
24 96 97 98 99 100 101 102 103 104 105 106 107 108 109 110 111 112 113 114 115 116 117 118 119
24 120 121 122 123 124 125 126 127 128 129 130 131 132 133 134 135 136 137 138 139 140 141 142 143
24 144 145 146 147 148 149 150 151 152 153 154 155 156 157 158 159 160 161 162 163 164 165 166 167
24 168 169 170 171 172 173 174 175 176 177 178 179 180 181 182 183 184 185 186 187 188 189 190 191
24 192 193 194 195 196 197 198 199 200 201 202 203 204 205 206 207 208 209 210 211 212 213 214 215
24 216 217 218 219 220 221 222 223 224 225 226 227 228 229 230 231 232 233 234 235 236 237 238 239
CELL_TYPES  10 
33
33
33
33
33
33
33
33
33
33
CELL_DATA  10 
SCALARS average_vol_activity_bq_m3 double 1 
LOOKUP_TABLE default
6.92945
30.31763
2.19070
9.96826
0.00000
0.74665
1.45615
43.18204
0.00000
0.00000
SCALARS total_activity_bq double 1 
LOOKUP_TABLE default
0.02382
0.10424
0.01506
0.06854
0.00000
0.00513
0.01001
0.60580
0.00000
0.00000
SCALARS mc_error double 1 
LOOKUP_TABLE default
0.00000
0.00007
0.00608
0.00278
0.00000
0.00997
0.00735
0.00000
0.00000
0.00000
